
     Program PROJWFC v.7.2 starts on 18Jun2026 at  3:28:54 

     This program is part of the open-source Quantum ESPRESSO suite
     for quantum simulation of materials; please cite
         "P. Giannozzi et al., J. Phys.:Condens. Matter 21 395502 (2009);
         "P. Giannozzi et al., J. Phys.:Condens. Matter 29 465901 (2017);
         "P. Giannozzi et al., J. Chem. Phys. 152 154105 (2020);
          URL http://www.quantum-espresso.org", 
     in publications or presentations arising from this work. More details at
     http://www.quantum-espresso.org/quote

     Parallel version (MPI), running on     1 processors

     MPI processes distributed on     1 nodes
     144396 MiB available memory on the printing compute node when the environment starts


     Reading xml data from directory:

     ../../tmp/cspbf3.save/
     file Cs.pbe-spn-kjpaw_psl.1.0.0.UPF: wavefunction(s)  5S 6S renormalized
     file Pb.pbe-dn-kjpaw_psl.1.0.0.UPF: wavefunction(s)  6S 6P 5D renormalized
     file F.pbe-n-kjpaw_psl.1.0.0.UPF: wavefunction(s)  2S 2P renormalized

     IMPORTANT: XC functional enforced from input :
     Exchange-correlation= PBE
                           (   1   4   3   4   0   0   0)
     Any further DFT definition will be discarded
     Please, verify this is what you really want


     G-vector sticks info
     --------------------
     sticks:   dense  smooth     PW     G-vecs:    dense   smooth      PW
     Sum        4373    2185    621               217663    76957   11633

     Using Slab Decomposition


     Gaussian broadening (read from input): ngauss,degauss=   0    0.020000


     Calling projwave .... 
     Subspace diagonalization in iterative solution of the eigenvalue problem:
     a serial algorithm will be used


  Problem Sizes 
  natomwfc =           26
  nbnd     =           40
  nkstot   =           84
  npwx     =         9771
  nkb      =           75


     Atomic states used for projection
     (read from pseudopotential files):

     state #   1: atom   1 (Pb ), wfc  1 (l=0 m= 1)
     state #   2: atom   1 (Pb ), wfc  2 (l=1 m= 1)
     state #   3: atom   1 (Pb ), wfc  2 (l=1 m= 2)
     state #   4: atom   1 (Pb ), wfc  2 (l=1 m= 3)
     state #   5: atom   1 (Pb ), wfc  3 (l=2 m= 1)
     state #   6: atom   1 (Pb ), wfc  3 (l=2 m= 2)
     state #   7: atom   1 (Pb ), wfc  3 (l=2 m= 3)
     state #   8: atom   1 (Pb ), wfc  3 (l=2 m= 4)
     state #   9: atom   1 (Pb ), wfc  3 (l=2 m= 5)
     state #  10: atom   2 (Cs ), wfc  1 (l=0 m= 1)
     state #  11: atom   2 (Cs ), wfc  2 (l=0 m= 1)
     state #  12: atom   2 (Cs ), wfc  3 (l=1 m= 1)
     state #  13: atom   2 (Cs ), wfc  3 (l=1 m= 2)
     state #  14: atom   2 (Cs ), wfc  3 (l=1 m= 3)
     state #  15: atom   3 (F  ), wfc  1 (l=0 m= 1)
     state #  16: atom   3 (F  ), wfc  2 (l=1 m= 1)
     state #  17: atom   3 (F  ), wfc  2 (l=1 m= 2)
     state #  18: atom   3 (F  ), wfc  2 (l=1 m= 3)
     state #  19: atom   4 (F  ), wfc  1 (l=0 m= 1)
     state #  20: atom   4 (F  ), wfc  2 (l=1 m= 1)
     state #  21: atom   4 (F  ), wfc  2 (l=1 m= 2)
     state #  22: atom   4 (F  ), wfc  2 (l=1 m= 3)
     state #  23: atom   5 (F  ), wfc  1 (l=0 m= 1)
     state #  24: atom   5 (F  ), wfc  2 (l=1 m= 1)
     state #  25: atom   5 (F  ), wfc  2 (l=1 m= 2)
     state #  26: atom   5 (F  ), wfc  2 (l=1 m= 3)

 k =   0.0000000000  0.0000000000  0.0000000000
==== e(   1) =   -17.23394 eV ==== 
     psi = 0.282*[#  15]+0.282*[#  19]+0.282*[#  23]+0.112*[#  11]+0.022*[#  10]
          +0.021*[#   1]
    |psi|^2 = 1.000
==== e(   2) =   -17.08174 eV ==== 
     psi = 0.324*[#  15]+0.324*[#  19]+0.324*[#  23]+0.013*[#   5]+0.013*[#   8]
          
    |psi|^2 = 0.999
==== e(   3) =   -17.08174 eV ==== 
     psi = 0.324*[#  15]+0.324*[#  19]+0.324*[#  23]+0.013*[#   5]+0.013*[#   8]
          
    |psi|^2 = 0.999
==== e(   4) =   -16.00558 eV ==== 
     psi = 0.962*[#  10]+0.011*[#  15]+0.011*[#  19]+0.011*[#  23]+0.005*[#  11]
          
    |psi|^2 = 1.000
==== e(   5) =   -11.01581 eV ==== 
     psi = 0.333*[#   6]+0.333*[#   7]+0.333*[#   9]
    |psi|^2 = 1.000
==== e(   6) =   -11.01581 eV ==== 
     psi = 0.333*[#   6]+0.333*[#   7]+0.333*[#   9]
    |psi|^2 = 1.000
==== e(   7) =   -11.01581 eV ==== 
     psi = 0.333*[#   6]+0.333*[#   7]+0.333*[#   9]
    |psi|^2 = 1.000
==== e(   8) =   -10.79500 eV ==== 
     psi = 0.487*[#   5]+0.487*[#   8]+0.009*[#  15]+0.009*[#  19]+0.009*[#  23]
          
    |psi|^2 = 1.000
==== e(   9) =   -10.79500 eV ==== 
     psi = 0.487*[#   5]+0.487*[#   8]+0.009*[#  15]+0.009*[#  19]+0.009*[#  23]
          
    |psi|^2 = 1.000
==== e(  10) =    -2.85471 eV ==== 
     psi = 0.318*[#  12]+0.318*[#  13]+0.318*[#  14]+0.006*[#   2]+0.006*[#   3]
          +0.006*[#   4]+0.004*[#  16]+0.004*[#  17]+0.004*[#  20]+0.004*[#  22]
          +0.004*[#  25]+0.004*[#  26]+0.001*[#  18]+0.001*[#  21]+0.001*[#  24]
          
    |psi|^2 = 1.000
==== e(  11) =    -2.85471 eV ==== 
     psi = 0.318*[#  12]+0.318*[#  13]+0.318*[#  14]+0.006*[#   2]+0.006*[#   3]
          +0.006*[#   4]+0.004*[#  16]+0.004*[#  17]+0.004*[#  20]+0.004*[#  22]
          +0.004*[#  25]+0.004*[#  26]+0.001*[#  18]+0.001*[#  21]+0.001*[#  24]
          
    |psi|^2 = 1.000
==== e(  12) =    -2.85471 eV ==== 
     psi = 0.318*[#  12]+0.318*[#  13]+0.318*[#  14]+0.006*[#   2]+0.006*[#   3]
          +0.006*[#   4]+0.004*[#  16]+0.004*[#  17]+0.004*[#  20]+0.004*[#  22]
          +0.004*[#  25]+0.004*[#  26]+0.001*[#  18]+0.001*[#  21]+0.001*[#  24]
          
    |psi|^2 = 1.000
==== e(  13) =    -0.98340 eV ==== 
     psi = 0.788*[#   1]+0.137*[#  11]+0.024*[#  15]+0.024*[#  19]+0.024*[#  23]
          +0.003*[#  10]
    |psi|^2 = 0.999
==== e(  14) =     0.11274 eV ==== 
     psi = 0.237*[#  18]+0.237*[#  21]+0.237*[#  24]+0.062*[#   2]+0.062*[#   3]
          +0.062*[#   4]+0.013*[#  16]+0.013*[#  17]+0.013*[#  20]+0.013*[#  22]
          +0.013*[#  25]+0.013*[#  26]+0.008*[#  12]+0.008*[#  13]+0.008*[#  14]
          
    |psi|^2 = 0.998
==== e(  15) =     0.11274 eV ==== 
     psi = 0.237*[#  18]+0.237*[#  21]+0.237*[#  24]+0.062*[#   2]+0.062*[#   3]
          +0.062*[#   4]+0.013*[#  16]+0.013*[#  17]+0.013*[#  20]+0.013*[#  22]
          +0.013*[#  25]+0.013*[#  26]+0.008*[#  12]+0.008*[#  13]+0.008*[#  14]
          
    |psi|^2 = 0.998
==== e(  16) =     0.11275 eV ==== 
     psi = 0.237*[#  18]+0.237*[#  21]+0.237*[#  24]+0.062*[#   2]+0.062*[#   3]
          +0.062*[#   4]+0.013*[#  16]+0.013*[#  17]+0.013*[#  20]+0.013*[#  22]
          +0.013*[#  25]+0.013*[#  26]+0.008*[#  12]+0.008*[#  13]+0.008*[#  14]
          
    |psi|^2 = 0.998
==== e(  17) =     1.62923 eV ==== 
     psi = 0.165*[#  16]+0.165*[#  17]+0.165*[#  20]+0.165*[#  22]+0.165*[#  25]
          +0.165*[#  26]
    |psi|^2 = 0.992
==== e(  18) =     1.62924 eV ==== 
     psi = 0.165*[#  16]+0.165*[#  17]+0.165*[#  20]+0.165*[#  22]+0.165*[#  25]
          +0.165*[#  26]
    |psi|^2 = 0.992
==== e(  19) =     1.62924 eV ==== 
     psi = 0.165*[#  16]+0.165*[#  17]+0.165*[#  20]+0.165*[#  22]+0.165*[#  25]
          +0.165*[#  26]
    |psi|^2 = 0.992
==== e(  20) =     1.72227 eV ==== 
     psi = 0.142*[#  16]+0.142*[#  17]+0.142*[#  20]+0.142*[#  22]+0.142*[#  25]
          +0.142*[#  26]+0.041*[#  18]+0.041*[#  21]+0.041*[#  24]+0.005*[#  12]
          +0.005*[#  13]+0.005*[#  14]
    |psi|^2 = 0.994
==== e(  21) =     1.72227 eV ==== 
     psi = 0.142*[#  16]+0.142*[#  17]+0.142*[#  20]+0.142*[#  22]+0.142*[#  25]
          +0.142*[#  26]+0.041*[#  18]+0.041*[#  21]+0.041*[#  24]+0.005*[#  12]
          +0.005*[#  13]+0.005*[#  14]
    |psi|^2 = 0.994
==== e(  22) =     1.72227 eV ==== 
     psi = 0.142*[#  16]+0.142*[#  17]+0.142*[#  20]+0.142*[#  22]+0.142*[#  25]
          +0.142*[#  26]+0.041*[#  18]+0.041*[#  21]+0.041*[#  24]+0.005*[#  12]
          +0.005*[#  13]+0.005*[#  14]
    |psi|^2 = 0.994
==== e(  23) =     9.48531 eV ==== 
     psi = 0.729*[#  11]+0.188*[#   1]+0.016*[#  15]+0.016*[#  19]+0.016*[#  23]
          +0.013*[#  10]
    |psi|^2 = 0.978
==== e(  24) =     9.86669 eV ==== 

    |psi|^2 = 0.000
==== e(  25) =     9.86669 eV ==== 

    |psi|^2 = 0.000
==== e(  26) =    11.11758 eV ==== 
     psi = 0.261*[#   2]+0.261*[#   3]+0.261*[#   4]+0.050*[#  18]+0.050*[#  21]
          +0.050*[#  24]+0.008*[#  16]+0.008*[#  17]+0.008*[#  20]+0.008*[#  22]
          +0.008*[#  25]+0.008*[#  26]+0.001*[#  12]+0.001*[#  13]+0.001*[#  14]
          
    |psi|^2 = 0.983
==== e(  27) =    11.11758 eV ==== 
     psi = 0.261*[#   2]+0.261*[#   3]+0.261*[#   4]+0.050*[#  18]+0.050*[#  21]
          +0.050*[#  24]+0.008*[#  16]+0.008*[#  17]+0.008*[#  20]+0.008*[#  22]
          +0.008*[#  25]+0.008*[#  26]+0.001*[#  12]+0.001*[#  13]+0.001*[#  14]
          
    |psi|^2 = 0.983
==== e(  28) =    11.11758 eV ==== 
     psi = 0.261*[#   2]+0.261*[#   3]+0.261*[#   4]+0.050*[#  18]+0.050*[#  21]
          +0.050*[#  24]+0.008*[#  16]+0.008*[#  17]+0.008*[#  20]+0.008*[#  22]
          +0.008*[#  25]+0.008*[#  26]+0.001*[#  12]+0.001*[#  13]+0.001*[#  14]
          
    |psi|^2 = 0.983
==== e(  29) =    11.89164 eV ==== 

    |psi|^2 = 0.000
==== e(  30) =    11.89164 eV ==== 

    |psi|^2 = 0.000
==== e(  31) =    11.89164 eV ==== 

    |psi|^2 = 0.000
==== e(  32) =    17.39608 eV ==== 
     psi = 0.001*[#  16]+0.001*[#  17]+0.001*[#  20]+0.001*[#  22]+0.001*[#  25]
          +0.001*[#  26]
    |psi|^2 = 0.006
==== e(  33) =    17.39608 eV ==== 
     psi = 0.001*[#  16]+0.001*[#  17]+0.001*[#  20]+0.001*[#  22]+0.001*[#  25]
          +0.001*[#  26]
    |psi|^2 = 0.006
==== e(  34) =    17.39608 eV ==== 
     psi = 0.001*[#  16]+0.001*[#  17]+0.001*[#  20]+0.001*[#  22]+0.001*[#  25]
          +0.001*[#  26]
    |psi|^2 = 0.006
==== e(  35) =    17.90678 eV ==== 

    |psi|^2 = 0.000
==== e(  36) =    18.20468 eV ==== 
     psi = 0.002*[#   2]+0.002*[#   3]+0.002*[#   4]+0.002*[#  18]+0.002*[#  21]
          +0.002*[#  24]
    |psi|^2 = 0.014
==== e(  37) =    18.20468 eV ==== 
     psi = 0.002*[#   2]+0.002*[#   3]+0.002*[#   4]+0.002*[#  18]+0.002*[#  21]
          +0.002*[#  24]
    |psi|^2 = 0.014
==== e(  38) =    18.20468 eV ==== 
     psi = 0.002*[#   2]+0.002*[#   3]+0.002*[#   4]+0.002*[#  18]+0.002*[#  21]
          +0.002*[#  24]
    |psi|^2 = 0.014
==== e(  39) =    18.31929 eV ==== 

    |psi|^2 = 0.000
==== e(  40) =    18.31929 eV ==== 

    |psi|^2 = 0.000

 k =   0.0000000000  0.0000000000  0.0833333333
==== e(   1) =   -17.22933 eV ==== 
     psi = 0.283*[#  15]+0.283*[#  19]+0.283*[#  23]+0.108*[#  11]+0.021*[#   1]
          +0.021*[#  10]
    |psi|^2 = 1.000
==== e(   2) =   -17.08169 eV ==== 
     psi = 0.324*[#  15]+0.324*[#  19]+0.324*[#  23]+0.013*[#   5]+0.013*[#   8]
          
    |psi|^2 = 0.999
==== e(   3) =   -17.08026 eV ==== 
     psi = 0.323*[#  15]+0.323*[#  19]+0.323*[#  23]+0.012*[#   5]+0.012*[#   8]
          +0.001*[#   2]+0.001*[#   3]+0.001*[#   4]
    |psi|^2 = 0.999
==== e(   4) =   -16.00673 eV ==== 
     psi = 0.963*[#  10]+0.010*[#  15]+0.010*[#  19]+0.010*[#  23]+0.005*[#  11]
          
    |psi|^2 = 1.000
==== e(   5) =   -11.01625 eV ==== 
     psi = 0.333*[#   6]+0.333*[#   7]+0.333*[#   9]
    |psi|^2 = 1.000
==== e(   6) =   -11.01625 eV ==== 
     psi = 0.333*[#   6]+0.333*[#   7]+0.333*[#   9]
    |psi|^2 = 1.000
==== e(   7) =   -11.01580 eV ==== 
     psi = 0.333*[#   6]+0.333*[#   7]+0.333*[#   9]
    |psi|^2 = 1.000
==== e(   8) =   -10.80824 eV ==== 
     psi = 0.487*[#   5]+0.487*[#   8]+0.008*[#  15]+0.008*[#  19]+0.008*[#  23]
          
    |psi|^2 = 1.000
==== e(   9) =   -10.79500 eV ==== 
     psi = 0.487*[#   5]+0.487*[#   8]+0.009*[#  15]+0.009*[#  19]+0.009*[#  23]
          
    |psi|^2 = 1.000
==== e(  10) =    -2.86560 eV ==== 
     psi = 0.316*[#  12]+0.316*[#  13]+0.316*[#  14]+0.006*[#   2]+0.006*[#   3]
          +0.006*[#   4]+0.004*[#  16]+0.004*[#  17]+0.004*[#  20]+0.004*[#  22]
          +0.004*[#  25]+0.004*[#  26]+0.003*[#   1]+0.003*[#  11]+0.002*[#  18]
          +0.002*[#  21]+0.002*[#  24]
    |psi|^2 = 1.000
==== e(  11) =    -2.84995 eV ==== 
     psi = 0.319*[#  12]+0.319*[#  13]+0.319*[#  14]+0.006*[#   2]+0.006*[#   3]
          +0.006*[#   4]+0.004*[#  16]+0.004*[#  17]+0.004*[#  20]+0.004*[#  22]
          +0.004*[#  25]+0.004*[#  26]+0.001*[#  18]+0.001*[#  21]+0.001*[#  24]
          
    |psi|^2 = 1.000
==== e(  12) =    -2.84995 eV ==== 
     psi = 0.319*[#  12]+0.319*[#  13]+0.319*[#  14]+0.006*[#   2]+0.006*[#   3]
          +0.006*[#   4]+0.004*[#  16]+0.004*[#  17]+0.004*[#  20]+0.004*[#  22]
          +0.004*[#  25]+0.004*[#  26]+0.001*[#  18]+0.001*[#  21]+0.001*[#  24]
          
    |psi|^2 = 1.000
==== e(  13) =    -1.15653 eV ==== 
     psi = 0.702*[#   1]+0.112*[#  11]+0.032*[#  18]+0.032*[#  21]+0.032*[#  24]
          +0.019*[#  15]+0.019*[#  19]+0.019*[#  23]+0.005*[#  12]+0.005*[#  13]
          +0.005*[#  14]+0.004*[#   2]+0.004*[#   3]+0.004*[#   4]+0.002*[#  10]
          
    |psi|^2 = 0.999
==== e(  14) =     0.11336 eV ==== 
     psi = 0.238*[#  18]+0.238*[#  21]+0.238*[#  24]+0.062*[#   2]+0.062*[#   3]
          +0.062*[#   4]+0.013*[#  16]+0.013*[#  17]+0.013*[#  20]+0.013*[#  22]
          +0.013*[#  25]+0.013*[#  26]+0.008*[#  12]+0.008*[#  13]+0.008*[#  14]
          
    |psi|^2 = 0.998
==== e(  15) =     0.11336 eV ==== 
     psi = 0.238*[#  18]+0.238*[#  21]+0.238*[#  24]+0.062*[#   2]+0.062*[#   3]
          +0.062*[#   4]+0.013*[#  16]+0.013*[#  17]+0.013*[#  20]+0.013*[#  22]
          +0.013*[#  25]+0.013*[#  26]+0.008*[#  12]+0.008*[#  13]+0.008*[#  14]
          
    |psi|^2 = 0.998
==== e(  16) =     0.34220 eV ==== 
     psi = 0.198*[#  18]+0.198*[#  21]+0.198*[#  24]+0.080*[#   1]+0.055*[#   2]
          +0.055*[#   3]+0.055*[#   4]+0.020*[#  11]+0.018*[#  16]+0.018*[#  17]
          +0.018*[#  20]+0.018*[#  22]+0.018*[#  25]+0.018*[#  26]+0.006*[#  12]
          +0.006*[#  13]+0.006*[#  14]+0.004*[#  15]+0.004*[#  19]+0.004*[#  23]
          +0.001*[#  10]
    |psi|^2 = 0.998
==== e(  17) =     1.62361 eV ==== 
     psi = 0.165*[#  16]+0.165*[#  17]+0.165*[#  20]+0.165*[#  22]+0.165*[#  25]
          +0.165*[#  26]
    |psi|^2 = 0.991
==== e(  18) =     1.62596 eV ==== 
     psi = 0.165*[#  16]+0.165*[#  17]+0.165*[#  20]+0.165*[#  22]+0.165*[#  25]
          +0.165*[#  26]
    |psi|^2 = 0.992
==== e(  19) =     1.62596 eV ==== 
     psi = 0.165*[#  16]+0.165*[#  17]+0.165*[#  20]+0.165*[#  22]+0.165*[#  25]
          +0.165*[#  26]
    |psi|^2 = 0.992
==== e(  20) =     1.71783 eV ==== 
     psi = 0.142*[#  16]+0.142*[#  17]+0.142*[#  20]+0.142*[#  22]+0.142*[#  25]
          +0.142*[#  26]+0.040*[#  18]+0.040*[#  21]+0.040*[#  24]+0.005*[#  12]
          +0.005*[#  13]+0.005*[#  14]
    |psi|^2 = 0.993
==== e(  21) =     1.71783 eV ==== 
     psi = 0.142*[#  16]+0.142*[#  17]+0.142*[#  20]+0.142*[#  22]+0.142*[#  25]
          +0.142*[#  26]+0.040*[#  18]+0.040*[#  21]+0.040*[#  24]+0.005*[#  12]
          +0.005*[#  13]+0.005*[#  14]
    |psi|^2 = 0.993
==== e(  22) =     1.73245 eV ==== 
     psi = 0.136*[#  16]+0.136*[#  17]+0.136*[#  20]+0.136*[#  22]+0.136*[#  25]
          +0.136*[#  26]+0.050*[#  18]+0.050*[#  21]+0.050*[#  24]+0.009*[#   1]
          +0.005*[#  12]+0.005*[#  13]+0.005*[#  14]
    |psi|^2 = 0.994
==== e(  23) =     9.46378 eV ==== 
     psi = 0.647*[#  11]+0.165*[#   1]+0.019*[#   2]+0.019*[#   3]+0.019*[#   4]
          +0.015*[#  15]+0.015*[#  19]+0.015*[#  23]+0.012*[#  10]+0.004*[#  18]
          +0.004*[#  21]+0.004*[#  24]+0.002*[#  16]+0.002*[#  17]+0.002*[#  20]
          +0.002*[#  22]+0.002*[#  25]+0.002*[#  26]
    |psi|^2 = 0.952
==== e(  24) =     9.90273 eV ==== 

    |psi|^2 = 0.001
==== e(  25) =     9.91638 eV ==== 
     psi = 0.040*[#  11]+0.013*[#   2]+0.013*[#   3]+0.013*[#   4]+0.009*[#   1]
          +0.001*[#  18]+0.001*[#  21]+0.001*[#  24]
    |psi|^2 = 0.096
==== e(  26) =    10.99754 eV ==== 
     psi = 0.235*[#   2]+0.235*[#   3]+0.235*[#   4]+0.046*[#  18]+0.046*[#  21]
          +0.046*[#  24]+0.007*[#  16]+0.007*[#  17]+0.007*[#  20]+0.007*[#  22]
          +0.007*[#  25]+0.007*[#  26]+0.001*[#  12]+0.001*[#  13]+0.001*[#  14]
          
    |psi|^2 = 0.887
==== e(  27) =    10.99754 eV ==== 
     psi = 0.235*[#   2]+0.235*[#   3]+0.235*[#   4]+0.046*[#  18]+0.046*[#  21]
          +0.046*[#  24]+0.007*[#  16]+0.007*[#  17]+0.007*[#  20]+0.007*[#  22]
          +0.007*[#  25]+0.007*[#  26]+0.001*[#  12]+0.001*[#  13]+0.001*[#  14]
          
    |psi|^2 = 0.887
==== e(  28) =    11.16309 eV ==== 
     psi = 0.229*[#   2]+0.229*[#   3]+0.229*[#   4]+0.047*[#  11]+0.043*[#  18]
          +0.043*[#  21]+0.043*[#  24]+0.007*[#   1]+0.006*[#  16]+0.006*[#  17]
          +0.006*[#  20]+0.006*[#  22]+0.006*[#  25]+0.006*[#  26]+0.002*[#  12]
          +0.002*[#  13]+0.002*[#  14]+0.001*[#  15]+0.001*[#  19]+0.001*[#  23]
          
    |psi|^2 = 0.916
==== e(  29) =    11.90818 eV ==== 

    |psi|^2 = 0.000
==== e(  30) =    12.05093 eV ==== 
     psi = 0.026*[#   2]+0.026*[#   3]+0.026*[#   4]+0.005*[#  18]+0.005*[#  21]
          +0.005*[#  24]
    |psi|^2 = 0.097
==== e(  31) =    12.05093 eV ==== 
     psi = 0.026*[#   2]+0.026*[#   3]+0.026*[#   4]+0.005*[#  18]+0.005*[#  21]
          +0.005*[#  24]
    |psi|^2 = 0.097
==== e(  32) =    17.28512 eV ==== 

    |psi|^2 = 0.006
==== e(  33) =    17.38060 eV ==== 

    |psi|^2 = 0.007
==== e(  34) =    17.38060 eV ==== 

    |psi|^2 = 0.007
==== e(  35) =    17.44552 eV ==== 

    |psi|^2 = 0.000
==== e(  36) =    17.59505 eV ==== 
     psi = 0.001*[#   2]+0.001*[#   3]+0.001*[#   4]
    |psi|^2 = 0.008
==== e(  37) =    17.59505 eV ==== 
     psi = 0.001*[#   2]+0.001*[#   3]+0.001*[#   4]
    |psi|^2 = 0.008
==== e(  38) =    18.03506 eV ==== 
     psi = 0.002*[#   2]+0.002*[#   3]+0.002*[#   4]+0.002*[#  18]+0.002*[#  21]
          +0.002*[#  24]
    |psi|^2 = 0.012
==== e(  39) =    18.81082 eV ==== 

    |psi|^2 = 0.000
==== e(  40) =    19.01939 eV ==== 
     psi = 0.001*[#   2]+0.001*[#   3]+0.001*[#   4]
    |psi|^2 = 0.005

 k =   0.0000000000  0.0000000000  0.1666666667
==== e(   1) =   -17.21665 eV ==== 
     psi = 0.286*[#  15]+0.286*[#  19]+0.286*[#  23]+0.096*[#  11]+0.022*[#   1]
          +0.019*[#  10]+0.001*[#   2]+0.001*[#   3]+0.001*[#   4]
    |psi|^2 = 1.000
==== e(   2) =   -17.08153 eV ==== 
     psi = 0.324*[#  15]+0.324*[#  19]+0.324*[#  23]+0.013*[#   5]+0.013*[#   8]
          
    |psi|^2 = 0.999
==== e(   3) =   -17.07623 eV ==== 
     psi = 0.320*[#  15]+0.320*[#  19]+0.320*[#  23]+0.011*[#   5]+0.011*[#   8]
          +0.005*[#   2]+0.005*[#   3]+0.005*[#   4]
    |psi|^2 = 0.999
==== e(   4) =   -16.00988 eV ==== 
     psi = 0.965*[#  10]+0.009*[#  15]+0.009*[#  19]+0.009*[#  23]+0.003*[#  11]
          +0.001*[#   2]+0.001*[#   3]+0.001*[#   4]
    |psi|^2 = 1.000
==== e(   5) =   -11.01744 eV ==== 
     psi = 0.333*[#   6]+0.333*[#   7]+0.333*[#   9]
    |psi|^2 = 1.000
==== e(   6) =   -11.01744 eV ==== 
     psi = 0.333*[#   6]+0.333*[#   7]+0.333*[#   9]
    |psi|^2 = 1.000
==== e(   7) =   -11.01576 eV ==== 
     psi = 0.333*[#   6]+0.333*[#   7]+0.333*[#   9]
    |psi|^2 = 1.000
==== e(   8) =   -10.84442 eV ==== 
     psi = 0.488*[#   5]+0.488*[#   8]+0.007*[#  15]+0.007*[#  19]+0.007*[#  23]
          +0.001*[#  18]+0.001*[#  21]+0.001*[#  24]
    |psi|^2 = 1.000
==== e(   9) =   -10.79499 eV ==== 
     psi = 0.487*[#   5]+0.487*[#   8]+0.009*[#  15]+0.009*[#  19]+0.009*[#  23]
          
    |psi|^2 = 1.000
==== e(  10) =    -2.89625 eV ==== 
     psi = 0.310*[#  12]+0.310*[#  13]+0.310*[#  14]+0.015*[#   1]+0.010*[#  11]
          +0.006*[#   2]+0.006*[#   3]+0.006*[#   4]+0.003*[#  16]+0.003*[#  17]
          +0.003*[#  20]+0.003*[#  22]+0.003*[#  25]+0.003*[#  26]+0.003*[#  18]
          +0.003*[#  21]+0.003*[#  24]+0.001*[#  15]+0.001*[#  19]+0.001*[#  23]
          
    |psi|^2 = 1.000
==== e(  11) =    -2.83686 eV ==== 
     psi = 0.321*[#  12]+0.321*[#  13]+0.321*[#  14]+0.005*[#   2]+0.005*[#   3]
          +0.005*[#   4]+0.003*[#  16]+0.003*[#  17]+0.003*[#  20]+0.003*[#  22]
          +0.003*[#  25]+0.003*[#  26]+0.001*[#  18]+0.001*[#  21]+0.001*[#  24]
          
    |psi|^2 = 1.000
==== e(  12) =    -2.83686 eV ==== 
     psi = 0.321*[#  12]+0.321*[#  13]+0.321*[#  14]+0.005*[#   2]+0.005*[#   3]
          +0.005*[#   4]+0.003*[#  16]+0.003*[#  17]+0.003*[#  20]+0.003*[#  22]
          +0.003*[#  25]+0.003*[#  26]+0.001*[#  18]+0.001*[#  21]+0.001*[#  24]
          
    |psi|^2 = 1.000
==== e(  13) =    -1.45827 eV ==== 
     psi = 0.634*[#   1]+0.080*[#  11]+0.060*[#  18]+0.060*[#  21]+0.060*[#  24]
          +0.015*[#  15]+0.015*[#  19]+0.015*[#  23]+0.014*[#  12]+0.014*[#  13]
          +0.014*[#  14]+0.006*[#   2]+0.006*[#   3]+0.006*[#   4]
    |psi|^2 = 0.998
==== e(  14) =     0.11476 eV ==== 
     psi = 0.239*[#  18]+0.239*[#  21]+0.239*[#  24]+0.062*[#   2]+0.062*[#   3]
          +0.062*[#   4]+0.012*[#  16]+0.012*[#  17]+0.012*[#  20]+0.012*[#  22]
          +0.012*[#  25]+0.012*[#  26]+0.007*[#  12]+0.007*[#  13]+0.007*[#  14]
          
    |psi|^2 = 0.998
==== e(  15) =     0.11476 eV ==== 
     psi = 0.239*[#  18]+0.239*[#  21]+0.239*[#  24]+0.062*[#   2]+0.062*[#   3]
          +0.062*[#   4]+0.012*[#  16]+0.012*[#  17]+0.012*[#  20]+0.012*[#  22]
          +0.012*[#  25]+0.012*[#  26]+0.007*[#  12]+0.007*[#  13]+0.007*[#  14]
          
    |psi|^2 = 0.998
==== e(  16) =     0.77159 eV ==== 
     psi = 0.137*[#  18]+0.137*[#  21]+0.137*[#  24]+0.115*[#   1]+0.048*[#   2]
          +0.048*[#   3]+0.048*[#   4]+0.042*[#  16]+0.042*[#  17]+0.042*[#  20]
          +0.042*[#  22]+0.042*[#  25]+0.042*[#  26]+0.038*[#  11]+0.007*[#  15]
          +0.007*[#  19]+0.007*[#  23]+0.004*[#  12]+0.004*[#  13]+0.004*[#  14]
          +0.003*[#  10]
    |psi|^2 = 0.997
==== e(  17) =     1.60833 eV ==== 
     psi = 0.165*[#  16]+0.165*[#  17]+0.165*[#  20]+0.165*[#  22]+0.165*[#  25]
          +0.165*[#  26]
    |psi|^2 = 0.990
==== e(  18) =     1.61739 eV ==== 
     psi = 0.165*[#  16]+0.165*[#  17]+0.165*[#  20]+0.165*[#  22]+0.165*[#  25]
          +0.165*[#  26]+0.001*[#  18]+0.001*[#  21]+0.001*[#  24]
    |psi|^2 = 0.991
==== e(  19) =     1.61739 eV ==== 
     psi = 0.165*[#  16]+0.165*[#  17]+0.165*[#  20]+0.165*[#  22]+0.165*[#  25]
          +0.165*[#  26]+0.001*[#  18]+0.001*[#  21]+0.001*[#  24]
    |psi|^2 = 0.991
==== e(  20) =     1.70554 eV ==== 
     psi = 0.144*[#  16]+0.144*[#  17]+0.144*[#  20]+0.144*[#  22]+0.144*[#  25]
          +0.144*[#  26]+0.037*[#  18]+0.037*[#  21]+0.037*[#  24]+0.005*[#  12]
          +0.005*[#  13]+0.005*[#  14]
    |psi|^2 = 0.993
==== e(  21) =     1.70554 eV ==== 
     psi = 0.144*[#  16]+0.144*[#  17]+0.144*[#  20]+0.144*[#  22]+0.144*[#  25]
          +0.144*[#  26]+0.037*[#  18]+0.037*[#  21]+0.037*[#  24]+0.005*[#  12]
          +0.005*[#  13]+0.005*[#  14]
    |psi|^2 = 0.993
==== e(  22) =     1.79717 eV ==== 
     psi = 0.111*[#  16]+0.111*[#  17]+0.111*[#  20]+0.111*[#  22]+0.111*[#  25]
          +0.111*[#  26]+0.088*[#  18]+0.088*[#  21]+0.088*[#  24]+0.051*[#   1]
          +0.003*[#  12]+0.003*[#  13]+0.003*[#  14]
    |psi|^2 = 0.993
==== e(  23) =     9.28700 eV ==== 
     psi = 0.423*[#  11]+0.106*[#   1]+0.080*[#   2]+0.080*[#   3]+0.080*[#   4]
          +0.014*[#  15]+0.014*[#  18]+0.014*[#  19]+0.014*[#  21]+0.014*[#  23]
          +0.014*[#  24]+0.011*[#  10]+0.006*[#  16]+0.006*[#  17]+0.006*[#  20]
          +0.006*[#  22]+0.006*[#  25]+0.006*[#  26]
    |psi|^2 = 0.898
==== e(  24) =    10.00374 eV ==== 

    |psi|^2 = 0.003
==== e(  25) =    10.18159 eV ==== 
     psi = 0.178*[#  11]+0.034*[#   1]+0.015*[#   2]+0.015*[#   3]+0.015*[#   4]
          +0.003*[#  15]+0.003*[#  19]+0.003*[#  23]
    |psi|^2 = 0.271
==== e(  26) =    10.77990 eV ==== 
     psi = 0.216*[#   2]+0.216*[#   3]+0.216*[#   4]+0.042*[#  18]+0.042*[#  21]
          +0.042*[#  24]+0.006*[#  16]+0.006*[#  17]+0.006*[#  20]+0.006*[#  22]
          +0.006*[#  25]+0.006*[#  26]
    |psi|^2 = 0.814
==== e(  27) =    10.77990 eV ==== 
     psi = 0.216*[#   2]+0.216*[#   3]+0.216*[#   4]+0.042*[#  18]+0.042*[#  21]
          +0.042*[#  24]+0.006*[#  16]+0.006*[#  17]+0.006*[#  20]+0.006*[#  22]
          +0.006*[#  25]+0.006*[#  26]
    |psi|^2 = 0.814
==== e(  28) =    11.29708 eV ==== 
     psi = 0.169*[#   2]+0.169*[#   3]+0.169*[#   4]+0.153*[#  11]+0.027*[#  18]
          +0.027*[#  21]+0.027*[#  24]+0.020*[#   1]+0.004*[#  16]+0.004*[#  17]
          +0.004*[#  20]+0.004*[#  22]+0.004*[#  25]+0.004*[#  26]+0.003*[#  15]
          +0.003*[#  19]+0.003*[#  23]+0.002*[#  12]+0.002*[#  13]+0.002*[#  14]
          
    |psi|^2 = 0.798
==== e(  29) =    11.95495 eV ==== 

    |psi|^2 = 0.000
==== e(  30) =    12.38215 eV ==== 
     psi = 0.046*[#   2]+0.046*[#   3]+0.046*[#   4]+0.009*[#  18]+0.009*[#  21]
          +0.009*[#  24]+0.001*[#  16]+0.001*[#  17]+0.001*[#  20]+0.001*[#  22]
          +0.001*[#  25]+0.001*[#  26]
    |psi|^2 = 0.170
==== e(  31) =    12.38215 eV ==== 
     psi = 0.046*[#   2]+0.046*[#   3]+0.046*[#   4]+0.009*[#  18]+0.009*[#  21]
          +0.009*[#  24]+0.001*[#  16]+0.001*[#  17]+0.001*[#  20]+0.001*[#  22]
          +0.001*[#  25]+0.001*[#  26]
    |psi|^2 = 0.170
==== e(  32) =    16.81995 eV ==== 
     psi = 0.001*[#   2]+0.001*[#   3]+0.001*[#   4]+0.001*[#  18]+0.001*[#  21]
          +0.001*[#  24]
    |psi|^2 = 0.010
==== e(  33) =    16.81995 eV ==== 
     psi = 0.001*[#   2]+0.001*[#   3]+0.001*[#   4]+0.001*[#  18]+0.001*[#  21]
          +0.001*[#  24]
    |psi|^2 = 0.010
==== e(  34) =    16.88315 eV ==== 

    |psi|^2 = 0.000
==== e(  35) =    17.00017 eV ==== 

    |psi|^2 = 0.005
==== e(  36) =    17.56693 eV ==== 
     psi = 0.001*[#  18]+0.001*[#  21]+0.001*[#  24]
    |psi|^2 = 0.008
==== e(  37) =    17.63296 eV ==== 

    |psi|^2 = 0.005
==== e(  38) =    17.63296 eV ==== 

    |psi|^2 = 0.005
==== e(  39) =    18.49348 eV ==== 

    |psi|^2 = 0.002
==== e(  40) =    19.45760 eV ==== 

    |psi|^2 = 0.000

 k =   0.0000000000  0.0000000000  0.2500000000
==== e(   1) =   -17.19913 eV ==== 
     psi = 0.293*[#  15]+0.293*[#  19]+0.293*[#  23]+0.076*[#  11]+0.023*[#   1]
          +0.015*[#  10]+0.002*[#   2]+0.002*[#   3]+0.002*[#   4]
    |psi|^2 = 1.000
==== e(   2) =   -17.08132 eV ==== 
     psi = 0.324*[#  15]+0.324*[#  19]+0.324*[#  23]+0.013*[#   5]+0.013*[#   8]
          
    |psi|^2 = 0.999
==== e(   3) =   -17.07075 eV ==== 
     psi = 0.316*[#  15]+0.316*[#  19]+0.316*[#  23]+0.010*[#   2]+0.010*[#   3]
          +0.010*[#   4]+0.008*[#   5]+0.008*[#   8]+0.004*[#  11]+0.001*[#  10]
          
    |psi|^2 = 0.999
==== e(   4) =   -16.01417 eV ==== 
     psi = 0.967*[#  10]+0.008*[#  15]+0.008*[#  19]+0.008*[#  23]+0.002*[#   2]
          +0.002*[#   3]+0.002*[#   4]+0.002*[#  11]
    |psi|^2 = 1.000
==== e(   5) =   -11.01906 eV ==== 
     psi = 0.333*[#   6]+0.333*[#   7]+0.333*[#   9]
    |psi|^2 = 1.000
==== e(   6) =   -11.01906 eV ==== 
     psi = 0.333*[#   6]+0.333*[#   7]+0.333*[#   9]
    |psi|^2 = 1.000
==== e(   7) =   -11.01571 eV ==== 
     psi = 0.333*[#   6]+0.333*[#   7]+0.333*[#   9]
    |psi|^2 = 1.000
==== e(   8) =   -10.89393 eV ==== 
     psi = 0.488*[#   5]+0.488*[#   8]+0.005*[#  15]+0.005*[#  19]+0.005*[#  23]
          +0.002*[#  18]+0.002*[#  21]+0.002*[#  24]
    |psi|^2 = 1.000
==== e(   9) =   -10.79497 eV ==== 
     psi = 0.487*[#   5]+0.487*[#   8]+0.009*[#  15]+0.009*[#  19]+0.009*[#  23]
          
    |psi|^2 = 1.000
==== e(  10) =    -2.94033 eV ==== 
     psi = 0.300*[#  12]+0.300*[#  13]+0.300*[#  14]+0.037*[#   1]+0.016*[#  11]
          +0.005*[#   2]+0.005*[#   3]+0.005*[#   4]+0.005*[#  18]+0.005*[#  21]
          +0.005*[#  24]+0.002*[#  15]+0.002*[#  19]+0.002*[#  23]+0.002*[#  16]
          +0.002*[#  17]+0.002*[#  20]+0.002*[#  22]+0.002*[#  25]+0.002*[#  26]
          
    |psi|^2 = 1.000
==== e(  11) =    -2.81874 eV ==== 
     psi = 0.324*[#  12]+0.324*[#  13]+0.324*[#  14]+0.003*[#   2]+0.003*[#   3]
          +0.003*[#   4]+0.003*[#  16]+0.003*[#  17]+0.003*[#  20]+0.003*[#  22]
          +0.003*[#  25]+0.003*[#  26]
    |psi|^2 = 1.000
==== e(  12) =    -2.81874 eV ==== 
     psi = 0.324*[#  12]+0.324*[#  13]+0.324*[#  14]+0.003*[#   2]+0.003*[#   3]
          +0.003*[#   4]+0.003*[#  16]+0.003*[#  17]+0.003*[#  20]+0.003*[#  22]
          +0.003*[#  25]+0.003*[#  26]
    |psi|^2 = 1.000
==== e(  13) =    -1.72184 eV ==== 
     psi = 0.607*[#   1]+0.072*[#  18]+0.072*[#  21]+0.072*[#  24]+0.050*[#  11]
          +0.025*[#  12]+0.025*[#  13]+0.025*[#  14]+0.011*[#  15]+0.011*[#  19]
          +0.011*[#  23]+0.004*[#   2]+0.004*[#   3]+0.004*[#   4]+0.001*[#   5]
          +0.001*[#   8]
    |psi|^2 = 0.998
==== e(  14) =     0.11598 eV ==== 
     psi = 0.241*[#  18]+0.241*[#  21]+0.241*[#  24]+0.063*[#   2]+0.063*[#   3]
          +0.063*[#   4]+0.012*[#  16]+0.012*[#  17]+0.012*[#  20]+0.012*[#  22]
          +0.012*[#  25]+0.012*[#  26]+0.005*[#  12]+0.005*[#  13]+0.005*[#  14]
          
    |psi|^2 = 0.998
==== e(  15) =     0.11598 eV ==== 
     psi = 0.241*[#  18]+0.241*[#  21]+0.241*[#  24]+0.063*[#   2]+0.063*[#   3]
          +0.063*[#   4]+0.012*[#  16]+0.012*[#  17]+0.012*[#  20]+0.012*[#  22]
          +0.012*[#  25]+0.012*[#  26]+0.005*[#  12]+0.005*[#  13]+0.005*[#  14]
          
    |psi|^2 = 0.998
==== e(  16) =     1.09392 eV ==== 
     psi = 0.096*[#  16]+0.096*[#  17]+0.096*[#  20]+0.096*[#  22]+0.096*[#  25]
          +0.096*[#  26]+0.061*[#   1]+0.057*[#  18]+0.057*[#  21]+0.057*[#  24]
          +0.042*[#  11]+0.038*[#   2]+0.038*[#   3]+0.038*[#   4]+0.006*[#  15]
          +0.006*[#  19]+0.006*[#  23]+0.004*[#  10]+0.003*[#  12]+0.003*[#  13]
          +0.003*[#  14]
    |psi|^2 = 0.996
==== e(  17) =     1.58767 eV ==== 
     psi = 0.165*[#  16]+0.165*[#  17]+0.165*[#  20]+0.165*[#  22]+0.165*[#  25]
          +0.165*[#  26]
    |psi|^2 = 0.988
==== e(  18) =     1.60695 eV ==== 
     psi = 0.162*[#  16]+0.162*[#  17]+0.162*[#  20]+0.162*[#  22]+0.162*[#  25]
          +0.162*[#  26]+0.005*[#  18]+0.005*[#  21]+0.005*[#  24]
    |psi|^2 = 0.990
==== e(  19) =     1.60695 eV ==== 
     psi = 0.162*[#  16]+0.162*[#  17]+0.162*[#  20]+0.162*[#  22]+0.162*[#  25]
          +0.162*[#  26]+0.005*[#  18]+0.005*[#  21]+0.005*[#  24]
    |psi|^2 = 0.990
==== e(  20) =     1.68810 eV ==== 
     psi = 0.147*[#  16]+0.147*[#  17]+0.147*[#  20]+0.147*[#  22]+0.147*[#  25]
          +0.147*[#  26]+0.031*[#  18]+0.031*[#  21]+0.031*[#  24]+0.004*[#  12]
          +0.004*[#  13]+0.004*[#  14]
    |psi|^2 = 0.992
==== e(  21) =     1.68810 eV ==== 
     psi = 0.147*[#  16]+0.147*[#  17]+0.147*[#  20]+0.147*[#  22]+0.147*[#  25]
          +0.147*[#  26]+0.031*[#  18]+0.031*[#  21]+0.031*[#  24]+0.004*[#  12]
          +0.004*[#  13]+0.004*[#  14]
    |psi|^2 = 0.992
==== e(  22) =     2.03078 eV ==== 
     psi = 0.163*[#  18]+0.163*[#  21]+0.163*[#  24]+0.144*[#   1]+0.056*[#  16]
          +0.056*[#  17]+0.056*[#  20]+0.056*[#  22]+0.056*[#  25]+0.056*[#  26]
          +0.004*[#   2]+0.004*[#   3]+0.004*[#   4]+0.003*[#  11]+0.002*[#  15]
          +0.002*[#  19]+0.002*[#  23]+0.001*[#   5]+0.001*[#   8]
    |psi|^2 = 0.994
==== e(  23) =     8.95752 eV ==== 
     psi = 0.288*[#  11]+0.132*[#   2]+0.132*[#   3]+0.132*[#   4]+0.064*[#   1]
          +0.017*[#  18]+0.017*[#  21]+0.017*[#  24]+0.016*[#  15]+0.016*[#  19]
          +0.016*[#  23]+0.011*[#  10]+0.011*[#  16]+0.011*[#  17]+0.011*[#  20]
          +0.011*[#  22]+0.011*[#  25]+0.011*[#  26]
    |psi|^2 = 0.924
==== e(  24) =    10.14839 eV ==== 

    |psi|^2 = 0.006
==== e(  25) =    10.57872 eV ==== 
     psi = 0.212*[#   2]+0.212*[#   3]+0.212*[#   4]+0.042*[#  18]+0.042*[#  21]
          +0.042*[#  24]+0.006*[#  16]+0.006*[#  17]+0.006*[#  20]+0.006*[#  22]
          +0.006*[#  25]+0.006*[#  26]
    |psi|^2 = 0.798
==== e(  26) =    10.57872 eV ==== 
     psi = 0.212*[#   2]+0.212*[#   3]+0.212*[#   4]+0.042*[#  18]+0.042*[#  21]
          +0.042*[#  24]+0.006*[#  16]+0.006*[#  17]+0.006*[#  20]+0.006*[#  22]
          +0.006*[#  25]+0.006*[#  26]
    |psi|^2 = 0.798
==== e(  27) =    10.67666 eV ==== 
     psi = 0.216*[#  11]+0.030*[#   1]+0.011*[#   2]+0.011*[#   3]+0.011*[#   4]
          +0.003*[#  15]+0.003*[#  19]+0.003*[#  23]+0.001*[#  12]+0.001*[#  13]
          +0.001*[#  14]
    |psi|^2 = 0.294
==== e(  28) =    11.50588 eV ==== 
     psi = 0.280*[#  11]+0.123*[#   2]+0.123*[#   3]+0.123*[#   4]+0.029*[#   1]
          +0.014*[#  18]+0.014*[#  21]+0.014*[#  24]+0.004*[#  15]+0.004*[#  19]
          +0.004*[#  23]+0.002*[#  12]+0.002*[#  13]+0.002*[#  14]+0.001*[#  16]
          +0.001*[#  17]+0.001*[#  20]+0.001*[#  22]+0.001*[#  25]+0.001*[#  26]
          
    |psi|^2 = 0.748
==== e(  29) =    12.02313 eV ==== 

    |psi|^2 = 0.000
==== e(  30) =    12.75881 eV ==== 
     psi = 0.051*[#   2]+0.051*[#   3]+0.051*[#   4]+0.010*[#  18]+0.010*[#  21]
          +0.010*[#  24]
    |psi|^2 = 0.188
==== e(  31) =    12.75881 eV ==== 
     psi = 0.051*[#   2]+0.051*[#   3]+0.051*[#   4]+0.010*[#  18]+0.010*[#  21]
          +0.010*[#  24]
    |psi|^2 = 0.188
==== e(  32) =    16.22682 eV ==== 
     psi = 0.002*[#   2]+0.002*[#   3]+0.002*[#   4]+0.001*[#  18]+0.001*[#  21]
          +0.001*[#  24]
    |psi|^2 = 0.011
==== e(  33) =    16.22682 eV ==== 
     psi = 0.002*[#   2]+0.002*[#   3]+0.002*[#   4]+0.001*[#  18]+0.001*[#  21]
          +0.001*[#  24]
    |psi|^2 = 0.011
==== e(  34) =    16.39379 eV ==== 

    |psi|^2 = 0.000
==== e(  35) =    16.64000 eV ==== 

    |psi|^2 = 0.004
==== e(  36) =    16.83345 eV ==== 

    |psi|^2 = 0.005
==== e(  37) =    17.48281 eV ==== 
     psi = 0.004*[#  11]
    |psi|^2 = 0.005
==== e(  38) =    17.86363 eV ==== 

    |psi|^2 = 0.004
==== e(  39) =    17.86363 eV ==== 

    |psi|^2 = 0.004
==== e(  40) =    19.91397 eV ==== 

    |psi|^2 = 0.002

 k =   0.0000000000  0.0000000000  0.3333333333
==== e(   1) =   -17.18134 eV ==== 
     psi = 0.303*[#  15]+0.303*[#  19]+0.303*[#  23]+0.047*[#  11]+0.027*[#   1]
          +0.009*[#  10]+0.002*[#   5]+0.002*[#   8]+0.001*[#   2]+0.001*[#   3]
          +0.001*[#   4]
    |psi|^2 = 1.000
==== e(   2) =   -17.08111 eV ==== 
     psi = 0.324*[#  15]+0.324*[#  19]+0.324*[#  23]+0.013*[#   5]+0.013*[#   8]
          
    |psi|^2 = 0.999
==== e(   3) =   -17.06532 eV ==== 
     psi = 0.309*[#  15]+0.309*[#  19]+0.309*[#  23]+0.016*[#   2]+0.016*[#   3]
          +0.016*[#   4]+0.012*[#  11]+0.004*[#   5]+0.004*[#   8]+0.004*[#  10]
          
    |psi|^2 = 0.999
==== e(   4) =   -16.01846 eV ==== 
     psi = 0.968*[#  10]+0.007*[#  15]+0.007*[#  19]+0.007*[#  23]+0.004*[#   2]
          +0.004*[#   3]+0.004*[#   4]
    |psi|^2 = 1.000
==== e(   5) =   -11.02069 eV ==== 
     psi = 0.333*[#   6]+0.333*[#   7]+0.333*[#   9]
    |psi|^2 = 1.000
==== e(   6) =   -11.02069 eV ==== 
     psi = 0.333*[#   6]+0.333*[#   7]+0.333*[#   9]
    |psi|^2 = 1.000
==== e(   7) =   -11.01567 eV ==== 
     psi = 0.333*[#   6]+0.333*[#   7]+0.333*[#   9]
    |psi|^2 = 1.000
==== e(   8) =   -10.94353 eV ==== 
     psi = 0.489*[#   5]+0.489*[#   8]+0.004*[#  15]+0.004*[#  19]+0.004*[#  23]
          +0.003*[#  18]+0.003*[#  21]+0.003*[#  24]
    |psi|^2 = 1.000
==== e(   9) =   -10.79495 eV ==== 
     psi = 0.487*[#   5]+0.487*[#   8]+0.009*[#  15]+0.009*[#  19]+0.009*[#  23]
          
    |psi|^2 = 1.000
==== e(  10) =    -2.98697 eV ==== 
     psi = 0.290*[#  12]+0.290*[#  13]+0.290*[#  14]+0.068*[#   1]+0.015*[#  11]
          +0.007*[#  18]+0.007*[#  21]+0.007*[#  24]+0.003*[#  15]+0.003*[#  19]
          +0.003*[#  23]+0.003*[#   2]+0.003*[#   3]+0.003*[#   4]
    |psi|^2 = 1.000
==== e(  11) =    -2.80034 eV ==== 
     psi = 0.327*[#  12]+0.327*[#  13]+0.327*[#  14]+0.002*[#  16]+0.002*[#  17]
          +0.002*[#  20]+0.002*[#  22]+0.002*[#  25]+0.002*[#  26]+0.002*[#   2]
          +0.002*[#   3]+0.002*[#   4]
    |psi|^2 = 1.000
==== e(  12) =    -2.80034 eV ==== 
     psi = 0.327*[#  12]+0.327*[#  13]+0.327*[#  14]+0.002*[#  16]+0.002*[#  17]
          +0.002*[#  20]+0.002*[#  22]+0.002*[#  25]+0.002*[#  26]+0.002*[#   2]
          +0.002*[#   3]+0.002*[#   4]
    |psi|^2 = 1.000
==== e(  13) =    -1.90986 eV ==== 
     psi = 0.596*[#   1]+0.076*[#  18]+0.076*[#  21]+0.076*[#  24]+0.038*[#  12]
          +0.038*[#  13]+0.038*[#  14]+0.025*[#  11]+0.008*[#  15]+0.008*[#  19]
          +0.008*[#  23]+0.002*[#   2]+0.002*[#   3]+0.002*[#   4]+0.002*[#   5]
          +0.002*[#   8]
    |psi|^2 = 0.998
==== e(  14) =     0.11635 eV ==== 
     psi = 0.243*[#  18]+0.243*[#  21]+0.243*[#  24]+0.063*[#   2]+0.063*[#   3]
          +0.063*[#   4]+0.012*[#  16]+0.012*[#  17]+0.012*[#  20]+0.012*[#  22]
          +0.012*[#  25]+0.012*[#  26]+0.002*[#  12]+0.002*[#  13]+0.002*[#  14]
          
    |psi|^2 = 0.998
==== e(  15) =     0.11635 eV ==== 
     psi = 0.243*[#  18]+0.243*[#  21]+0.243*[#  24]+0.063*[#   2]+0.063*[#   3]
          +0.063*[#   4]+0.012*[#  16]+0.012*[#  17]+0.012*[#  20]+0.012*[#  22]
          +0.012*[#  25]+0.012*[#  26]+0.002*[#  12]+0.002*[#  13]+0.002*[#  14]
          
    |psi|^2 = 0.998
==== e(  16) =     1.20717 eV ==== 
     psi = 0.132*[#  16]+0.132*[#  17]+0.132*[#  20]+0.132*[#  22]+0.132*[#  25]
          +0.132*[#  26]+0.040*[#  11]+0.028*[#   2]+0.028*[#   3]+0.028*[#   4]
          +0.016*[#   1]+0.014*[#  18]+0.014*[#  21]+0.014*[#  24]+0.005*[#  10]
          +0.004*[#  15]+0.004*[#  19]+0.004*[#  23]+0.002*[#  12]+0.002*[#  13]
          +0.002*[#  14]
    |psi|^2 = 0.996
==== e(  17) =     1.56725 eV ==== 
     psi = 0.164*[#  16]+0.164*[#  17]+0.164*[#  20]+0.164*[#  22]+0.164*[#  25]
          +0.164*[#  26]
    |psi|^2 = 0.986
==== e(  18) =     1.59879 eV ==== 
     psi = 0.158*[#  16]+0.158*[#  17]+0.158*[#  20]+0.158*[#  22]+0.158*[#  25]
          +0.158*[#  26]+0.013*[#  18]+0.013*[#  21]+0.013*[#  24]
    |psi|^2 = 0.990
==== e(  19) =     1.59879 eV ==== 
     psi = 0.158*[#  16]+0.158*[#  17]+0.158*[#  20]+0.158*[#  22]+0.158*[#  25]
          +0.158*[#  26]+0.013*[#  18]+0.013*[#  21]+0.013*[#  24]
    |psi|^2 = 0.990
==== e(  20) =     1.66912 eV ==== 
     psi = 0.153*[#  16]+0.153*[#  17]+0.153*[#  20]+0.153*[#  22]+0.153*[#  25]
          +0.153*[#  26]+0.020*[#  18]+0.020*[#  21]+0.020*[#  24]+0.004*[#  12]
          +0.004*[#  13]+0.004*[#  14]
    |psi|^2 = 0.992
==== e(  21) =     1.66912 eV ==== 
     psi = 0.153*[#  16]+0.153*[#  17]+0.153*[#  20]+0.153*[#  22]+0.153*[#  25]
          +0.153*[#  26]+0.020*[#  18]+0.020*[#  21]+0.020*[#  24]+0.004*[#  12]
          +0.004*[#  13]+0.004*[#  14]
    |psi|^2 = 0.992
==== e(  22) =     2.44194 eV ==== 
     psi = 0.217*[#   1]+0.212*[#  18]+0.212*[#  21]+0.212*[#  24]+0.017*[#  16]
          +0.017*[#  17]+0.017*[#  20]+0.017*[#  22]+0.017*[#  25]+0.017*[#  26]
          +0.006*[#  11]+0.006*[#   2]+0.006*[#   3]+0.006*[#   4]+0.003*[#  15]
          +0.003*[#  19]+0.003*[#  23]+0.003*[#   5]+0.003*[#   8]
    |psi|^2 = 0.994
==== e(  23) =     8.57508 eV ==== 
     psi = 0.233*[#  11]+0.162*[#   2]+0.162*[#   3]+0.162*[#   4]+0.034*[#   1]
          +0.020*[#  15]+0.020*[#  19]+0.020*[#  23]+0.015*[#  16]+0.015*[#  17]
          +0.015*[#  20]+0.015*[#  22]+0.015*[#  25]+0.015*[#  26]+0.013*[#  18]
          +0.013*[#  21]+0.013*[#  24]+0.012*[#  10]
    |psi|^2 = 0.954
==== e(  24) =    10.30214 eV ==== 
     psi = 0.001*[#  16]+0.001*[#  17]+0.001*[#  20]+0.001*[#  22]+0.001*[#  25]
          +0.001*[#  26]
    |psi|^2 = 0.009
==== e(  25) =    10.42555 eV ==== 
     psi = 0.214*[#   2]+0.214*[#   3]+0.214*[#   4]+0.042*[#  18]+0.042*[#  21]
          +0.042*[#  24]+0.006*[#  16]+0.006*[#  17]+0.006*[#  20]+0.006*[#  22]
          +0.006*[#  25]+0.006*[#  26]
    |psi|^2 = 0.802
==== e(  26) =    10.42555 eV ==== 
     psi = 0.214*[#   2]+0.214*[#   3]+0.214*[#   4]+0.042*[#  18]+0.042*[#  21]
          +0.042*[#  24]+0.006*[#  16]+0.006*[#  17]+0.006*[#  20]+0.006*[#  22]
          +0.006*[#  25]+0.006*[#  26]
    |psi|^2 = 0.802
==== e(  27) =    11.32548 eV ==== 
     psi = 0.114*[#  11]+0.009*[#   1]+0.002*[#   2]+0.002*[#   3]+0.002*[#   4]
          +0.001*[#  15]+0.001*[#  19]+0.001*[#  23]
    |psi|^2 = 0.138
==== e(  28) =    11.76538 eV ==== 
     psi = 0.461*[#  11]+0.106*[#   2]+0.106*[#   3]+0.106*[#   4]+0.029*[#   1]
          +0.006*[#  18]+0.006*[#  21]+0.006*[#  24]+0.003*[#  15]+0.003*[#  19]
          +0.003*[#  23]+0.002*[#  12]+0.002*[#  13]+0.002*[#  14]+0.002*[#  10]
          
    |psi|^2 = 0.845
==== e(  29) =    12.09716 eV ==== 

    |psi|^2 = 0.000
==== e(  30) =    13.12640 eV ==== 
     psi = 0.050*[#   2]+0.050*[#   3]+0.050*[#   4]+0.010*[#  18]+0.010*[#  21]
          +0.010*[#  24]
    |psi|^2 = 0.185
==== e(  31) =    13.12640 eV ==== 
     psi = 0.050*[#   2]+0.050*[#   3]+0.050*[#   4]+0.010*[#  18]+0.010*[#  21]
          +0.010*[#  24]
    |psi|^2 = 0.185
==== e(  32) =    15.72041 eV ==== 
     psi = 0.002*[#   2]+0.002*[#   3]+0.002*[#   4]
    |psi|^2 = 0.012
==== e(  33) =    15.72041 eV ==== 
     psi = 0.002*[#   2]+0.002*[#   3]+0.002*[#   4]
    |psi|^2 = 0.012
==== e(  34) =    15.82551 eV ==== 
     psi = 0.017*[#  11]+0.003*[#   1]+0.001*[#   2]+0.001*[#   3]+0.001*[#   4]
          
    |psi|^2 = 0.027
==== e(  35) =    16.01117 eV ==== 

    |psi|^2 = 0.000
==== e(  36) =    16.29956 eV ==== 

    |psi|^2 = 0.002
==== e(  37) =    16.74692 eV ==== 
     psi = 0.006*[#  11]
    |psi|^2 = 0.006
==== e(  38) =    18.14950 eV ==== 

    |psi|^2 = 0.002
==== e(  39) =    18.14950 eV ==== 

    |psi|^2 = 0.002
==== e(  40) =    19.97327 eV ==== 

    |psi|^2 = 0.001

 k =   0.0000000000  0.0000000000  0.4166666667
==== e(   1) =   -17.16812 eV ==== 
     psi = 0.313*[#  15]+0.313*[#  19]+0.313*[#  23]+0.031*[#   1]+0.015*[#  11]
          +0.003*[#   5]+0.003*[#   8]+0.003*[#  10]
    |psi|^2 = 0.999
==== e(   2) =   -17.08096 eV ==== 
     psi = 0.324*[#  15]+0.324*[#  19]+0.324*[#  23]+0.013*[#   5]+0.013*[#   8]
          
    |psi|^2 = 0.999
==== e(   3) =   -17.06140 eV ==== 
     psi = 0.302*[#  15]+0.302*[#  19]+0.302*[#  23]+0.023*[#  11]+0.020*[#   2]
          +0.020*[#   3]+0.020*[#   4]+0.007*[#  10]+0.001*[#   5]+0.001*[#   8]
          
    |psi|^2 = 0.999
==== e(   4) =   -16.02160 eV ==== 
     psi = 0.968*[#  10]+0.006*[#  15]+0.006*[#  19]+0.006*[#  23]+0.005*[#   2]
          +0.005*[#   3]+0.005*[#   4]
    |psi|^2 = 1.000
==== e(   5) =   -11.02188 eV ==== 
     psi = 0.333*[#   6]+0.333*[#   7]+0.333*[#   9]
    |psi|^2 = 1.000
==== e(   6) =   -11.02188 eV ==== 
     psi = 0.333*[#   6]+0.333*[#   7]+0.333*[#   9]
    |psi|^2 = 1.000
==== e(   7) =   -11.01563 eV ==== 
     psi = 0.333*[#   6]+0.333*[#   7]+0.333*[#   9]
    |psi|^2 = 1.000
==== e(   8) =   -10.97990 eV ==== 
     psi = 0.489*[#   5]+0.489*[#   8]+0.004*[#  18]+0.004*[#  21]+0.004*[#  24]
          +0.003*[#  15]+0.003*[#  19]+0.003*[#  23]+0.001*[#   1]
    |psi|^2 = 1.000
==== e(   9) =   -10.79494 eV ==== 
     psi = 0.487*[#   5]+0.487*[#   8]+0.009*[#  15]+0.009*[#  19]+0.009*[#  23]
          
    |psi|^2 = 1.000
==== e(  10) =    -3.02265 eV ==== 
     psi = 0.283*[#  12]+0.283*[#  13]+0.283*[#  14]+0.098*[#   1]+0.010*[#  18]
          +0.010*[#  21]+0.010*[#  24]+0.006*[#  11]+0.004*[#  15]+0.004*[#  19]
          +0.004*[#  23]
    |psi|^2 = 1.000
==== e(  11) =    -2.78669 eV ==== 
     psi = 0.329*[#  12]+0.329*[#  13]+0.329*[#  14]+0.002*[#  16]+0.002*[#  17]
          +0.002*[#  20]+0.002*[#  22]+0.002*[#  25]+0.002*[#  26]
    |psi|^2 = 1.000
==== e(  12) =    -2.78669 eV ==== 
     psi = 0.329*[#  12]+0.329*[#  13]+0.329*[#  14]+0.002*[#  16]+0.002*[#  17]
          +0.002*[#  20]+0.002*[#  22]+0.002*[#  25]+0.002*[#  26]
    |psi|^2 = 1.000
==== e(  13) =    -2.01930 eV ==== 
     psi = 0.589*[#   1]+0.077*[#  18]+0.077*[#  21]+0.077*[#  24]+0.048*[#  12]
          +0.048*[#  13]+0.048*[#  14]+0.007*[#  11]+0.007*[#  15]+0.007*[#  19]
          +0.007*[#  23]+0.002*[#   5]+0.002*[#   8]
    |psi|^2 = 0.998
==== e(  14) =     0.11604 eV ==== 
     psi = 0.245*[#  18]+0.245*[#  21]+0.245*[#  24]+0.064*[#   2]+0.064*[#   3]
          +0.064*[#   4]+0.012*[#  16]+0.012*[#  17]+0.012*[#  20]+0.012*[#  22]
          +0.012*[#  25]+0.012*[#  26]
    |psi|^2 = 0.998
==== e(  15) =     0.11604 eV ==== 
     psi = 0.245*[#  18]+0.245*[#  21]+0.245*[#  24]+0.064*[#   2]+0.064*[#   3]
          +0.064*[#   4]+0.012*[#  16]+0.012*[#  17]+0.012*[#  20]+0.012*[#  22]
          +0.012*[#  25]+0.012*[#  26]
    |psi|^2 = 0.998
==== e(  16) =     1.22839 eV ==== 
     psi = 0.144*[#  16]+0.144*[#  17]+0.144*[#  20]+0.144*[#  22]+0.144*[#  25]
          +0.144*[#  26]+0.041*[#  11]+0.023*[#   2]+0.023*[#   3]+0.023*[#   4]
          +0.005*[#  10]+0.003*[#  15]+0.003*[#  19]+0.003*[#  23]+0.002*[#   1]
          +0.002*[#  18]+0.002*[#  21]+0.002*[#  24]
    |psi|^2 = 0.996
==== e(  17) =     1.55245 eV ==== 
     psi = 0.164*[#  16]+0.164*[#  17]+0.164*[#  20]+0.164*[#  22]+0.164*[#  25]
          +0.164*[#  26]
    |psi|^2 = 0.985
==== e(  18) =     1.59523 eV ==== 
     psi = 0.152*[#  16]+0.152*[#  17]+0.152*[#  20]+0.152*[#  22]+0.152*[#  25]
          +0.152*[#  26]+0.025*[#  18]+0.025*[#  21]+0.025*[#  24]
    |psi|^2 = 0.989
==== e(  19) =     1.59523 eV ==== 
     psi = 0.152*[#  16]+0.152*[#  17]+0.152*[#  20]+0.152*[#  22]+0.152*[#  25]
          +0.152*[#  26]+0.025*[#  18]+0.025*[#  21]+0.025*[#  24]
    |psi|^2 = 0.989
==== e(  20) =     1.65331 eV ==== 
     psi = 0.159*[#  16]+0.159*[#  17]+0.159*[#  20]+0.159*[#  22]+0.159*[#  25]
          +0.159*[#  26]+0.007*[#  18]+0.007*[#  21]+0.007*[#  24]+0.004*[#  12]
          +0.004*[#  13]+0.004*[#  14]
    |psi|^2 = 0.991
==== e(  21) =     1.65331 eV ==== 
     psi = 0.159*[#  16]+0.159*[#  17]+0.159*[#  20]+0.159*[#  22]+0.159*[#  25]
          +0.159*[#  26]+0.007*[#  18]+0.007*[#  21]+0.007*[#  24]+0.004*[#  12]
          +0.004*[#  13]+0.004*[#  14]
    |psi|^2 = 0.991
==== e(  22) =     2.81455 eV ==== 
     psi = 0.252*[#   1]+0.232*[#  18]+0.232*[#  21]+0.232*[#  24]+0.003*[#  16]
          +0.003*[#  17]+0.003*[#  20]+0.003*[#  22]+0.003*[#  25]+0.003*[#  26]
          +0.003*[#   5]+0.003*[#   8]+0.003*[#  11]+0.003*[#  15]+0.003*[#  19]
          +0.003*[#  23]+0.002*[#   2]+0.002*[#   3]+0.002*[#   4]
    |psi|^2 = 0.994
==== e(  23) =     8.25723 eV ==== 
     psi = 0.220*[#  11]+0.177*[#   2]+0.177*[#   3]+0.177*[#   4]+0.023*[#  15]
          +0.023*[#  19]+0.023*[#  23]+0.018*[#  16]+0.018*[#  17]+0.018*[#  20]
          +0.018*[#  22]+0.018*[#  25]+0.018*[#  26]+0.013*[#  10]+0.011*[#   1]
          +0.004*[#  18]+0.004*[#  21]+0.004*[#  24]
    |psi|^2 = 0.968
==== e(  24) =    10.33089 eV ==== 
     psi = 0.216*[#   2]+0.216*[#   3]+0.216*[#   4]+0.043*[#  18]+0.043*[#  21]
          +0.043*[#  24]+0.006*[#  16]+0.006*[#  17]+0.006*[#  20]+0.006*[#  22]
          +0.006*[#  25]+0.006*[#  26]
    |psi|^2 = 0.810
==== e(  25) =    10.33089 eV ==== 
     psi = 0.216*[#   2]+0.216*[#   3]+0.216*[#   4]+0.043*[#  18]+0.043*[#  21]
          +0.043*[#  24]+0.006*[#  16]+0.006*[#  17]+0.006*[#  20]+0.006*[#  22]
          +0.006*[#  25]+0.006*[#  26]
    |psi|^2 = 0.810
==== e(  26) =    10.42162 eV ==== 
     psi = 0.002*[#  16]+0.002*[#  17]+0.002*[#  20]+0.002*[#  22]+0.002*[#  25]
          +0.002*[#  26]
    |psi|^2 = 0.011
==== e(  27) =    11.84772 eV ==== 
     psi = 0.127*[#  11]+0.042*[#   2]+0.042*[#   3]+0.042*[#   4]+0.003*[#   1]
          +0.002*[#  10]+0.001*[#  18]+0.001*[#  21]+0.001*[#  24]
    |psi|^2 = 0.264
==== e(  28) =    12.15585 eV ==== 

    |psi|^2 = 0.000
==== e(  29) =    12.20241 eV ==== 
     psi = 0.396*[#  11]+0.050*[#   2]+0.050*[#   3]+0.050*[#   4]+0.006*[#   1]
          +0.002*[#  10]+0.001*[#  15]+0.001*[#  19]+0.001*[#  23]
    |psi|^2 = 0.560
==== e(  30) =    13.42663 eV ==== 
     psi = 0.049*[#   2]+0.049*[#   3]+0.049*[#   4]+0.011*[#  18]+0.011*[#  21]
          +0.011*[#  24]
    |psi|^2 = 0.180
==== e(  31) =    13.42663 eV ==== 
     psi = 0.049*[#   2]+0.049*[#   3]+0.049*[#   4]+0.011*[#  18]+0.011*[#  21]
          +0.011*[#  24]
    |psi|^2 = 0.180
==== e(  32) =    14.79482 eV ==== 
     psi = 0.126*[#  11]+0.010*[#   2]+0.010*[#   3]+0.010*[#   4]+0.005*[#   1]
          
    |psi|^2 = 0.164
==== e(  33) =    15.34336 eV ==== 
     psi = 0.001*[#  16]+0.001*[#  17]+0.001*[#  20]+0.001*[#  22]+0.001*[#  25]
          +0.001*[#  26]
    |psi|^2 = 0.010
==== e(  34) =    15.34336 eV ==== 
     psi = 0.001*[#  16]+0.001*[#  17]+0.001*[#  20]+0.001*[#  22]+0.001*[#  25]
          +0.001*[#  26]
    |psi|^2 = 0.010
==== e(  35) =    15.76463 eV ==== 

    |psi|^2 = 0.000
==== e(  36) =    16.05699 eV ==== 

    |psi|^2 = 0.001
==== e(  37) =    16.28426 eV ==== 
     psi = 0.003*[#  11]
    |psi|^2 = 0.003
==== e(  38) =    18.40989 eV ==== 

    |psi|^2 = 0.001
==== e(  39) =    18.40989 eV ==== 

    |psi|^2 = 0.001
==== e(  40) =    19.98773 eV ==== 

    |psi|^2 = 0.000

 k =   0.0000000000  0.0000000000 -0.5000000000
==== e(   1) =   -17.16323 eV ==== 
     psi = 0.318*[#  15]+0.318*[#  19]+0.318*[#  23]+0.034*[#   1]+0.004*[#   5]
          +0.004*[#   8]
    |psi|^2 = 0.999
==== e(   2) =   -17.08090 eV ==== 
     psi = 0.324*[#  15]+0.324*[#  19]+0.324*[#  23]+0.013*[#   5]+0.013*[#   8]
          
    |psi|^2 = 0.999
==== e(   3) =   -17.05999 eV ==== 
     psi = 0.299*[#  15]+0.299*[#  19]+0.299*[#  23]+0.029*[#  11]+0.022*[#   2]
          +0.022*[#   3]+0.022*[#   4]+0.009*[#  10]
    |psi|^2 = 0.999
==== e(   4) =   -16.02274 eV ==== 
     psi = 0.968*[#  10]+0.006*[#  15]+0.006*[#  19]+0.006*[#  23]+0.005*[#   2]
          +0.005*[#   3]+0.005*[#   4]
    |psi|^2 = 1.000
==== e(   5) =   -11.02231 eV ==== 
     psi = 0.333*[#   6]+0.333*[#   7]+0.333*[#   9]
    |psi|^2 = 1.000
==== e(   6) =   -11.02231 eV ==== 
     psi = 0.333*[#   6]+0.333*[#   7]+0.333*[#   9]
    |psi|^2 = 1.000
==== e(   7) =   -11.01562 eV ==== 
     psi = 0.333*[#   6]+0.333*[#   7]+0.333*[#   9]
    |psi|^2 = 1.000
==== e(   8) =   -10.99323 eV ==== 
     psi = 0.489*[#   5]+0.489*[#   8]+0.004*[#  18]+0.004*[#  21]+0.004*[#  24]
          +0.002*[#  15]+0.002*[#  19]+0.002*[#  23]+0.001*[#   1]
    |psi|^2 = 1.000
==== e(   9) =   -10.79493 eV ==== 
     psi = 0.487*[#   5]+0.487*[#   8]+0.009*[#  15]+0.009*[#  19]+0.009*[#  23]
          
    |psi|^2 = 1.000
==== e(  10) =    -3.03602 eV ==== 
     psi = 0.281*[#  12]+0.281*[#  13]+0.281*[#  14]+0.112*[#   1]+0.011*[#  18]
          +0.011*[#  21]+0.011*[#  24]+0.004*[#  15]+0.004*[#  19]+0.004*[#  23]
          
    |psi|^2 = 1.000
==== e(  11) =    -2.78166 eV ==== 
     psi = 0.330*[#  12]+0.330*[#  13]+0.330*[#  14]+0.002*[#  16]+0.002*[#  17]
          +0.002*[#  20]+0.002*[#  22]+0.002*[#  25]+0.002*[#  26]
    |psi|^2 = 1.000
==== e(  12) =    -2.78166 eV ==== 
     psi = 0.330*[#  12]+0.330*[#  13]+0.330*[#  14]+0.002*[#  16]+0.002*[#  17]
          +0.002*[#  20]+0.002*[#  22]+0.002*[#  25]+0.002*[#  26]
    |psi|^2 = 1.000
==== e(  13) =    -2.05492 eV ==== 
     psi = 0.588*[#   1]+0.077*[#  18]+0.077*[#  21]+0.077*[#  24]+0.052*[#  12]
          +0.052*[#  13]+0.052*[#  14]+0.006*[#  15]+0.006*[#  19]+0.006*[#  23]
          +0.002*[#   5]+0.002*[#   8]
    |psi|^2 = 0.997
==== e(  14) =     0.11580 eV ==== 
     psi = 0.245*[#  18]+0.245*[#  21]+0.245*[#  24]+0.064*[#   2]+0.064*[#   3]
          +0.064*[#   4]+0.012*[#  16]+0.012*[#  17]+0.012*[#  20]+0.012*[#  22]
          +0.012*[#  25]+0.012*[#  26]
    |psi|^2 = 0.998
==== e(  15) =     0.11580 eV ==== 
     psi = 0.245*[#  18]+0.245*[#  21]+0.245*[#  24]+0.064*[#   2]+0.064*[#   3]
          +0.064*[#   4]+0.012*[#  16]+0.012*[#  17]+0.012*[#  20]+0.012*[#  22]
          +0.012*[#  25]+0.012*[#  26]
    |psi|^2 = 0.998
==== e(  16) =     1.22998 eV ==== 
     psi = 0.146*[#  16]+0.146*[#  17]+0.146*[#  20]+0.146*[#  22]+0.146*[#  25]
          +0.146*[#  26]+0.042*[#  11]+0.022*[#   2]+0.022*[#   3]+0.022*[#   4]
          +0.004*[#  10]+0.003*[#  15]+0.003*[#  19]+0.003*[#  23]
    |psi|^2 = 0.996
==== e(  17) =     1.54706 eV ==== 
     psi = 0.164*[#  16]+0.164*[#  17]+0.164*[#  20]+0.164*[#  22]+0.164*[#  25]
          +0.164*[#  26]
    |psi|^2 = 0.984
==== e(  18) =     1.59479 eV ==== 
     psi = 0.149*[#  16]+0.149*[#  17]+0.149*[#  20]+0.149*[#  22]+0.149*[#  25]
          +0.149*[#  26]+0.032*[#  18]+0.032*[#  21]+0.032*[#  24]
    |psi|^2 = 0.989
==== e(  19) =     1.59479 eV ==== 
     psi = 0.149*[#  16]+0.149*[#  17]+0.149*[#  20]+0.149*[#  22]+0.149*[#  25]
          +0.149*[#  26]+0.032*[#  18]+0.032*[#  21]+0.032*[#  24]
    |psi|^2 = 0.989
==== e(  20) =     1.64678 eV ==== 
     psi = 0.163*[#  16]+0.163*[#  17]+0.163*[#  20]+0.163*[#  22]+0.163*[#  25]
          +0.163*[#  26]+0.004*[#  12]+0.004*[#  13]+0.004*[#  14]
    |psi|^2 = 0.991
==== e(  21) =     1.64678 eV ==== 
     psi = 0.163*[#  16]+0.163*[#  17]+0.163*[#  20]+0.163*[#  22]+0.163*[#  25]
          +0.163*[#  26]+0.004*[#  12]+0.004*[#  13]+0.004*[#  14]
    |psi|^2 = 0.991
==== e(  22) =     2.96335 eV ==== 
     psi = 0.264*[#   1]+0.239*[#  18]+0.239*[#  21]+0.239*[#  24]+0.004*[#   5]
          +0.004*[#   8]+0.002*[#  15]+0.002*[#  19]+0.002*[#  23]
    |psi|^2 = 0.994
==== e(  23) =     8.13054 eV ==== 
     psi = 0.221*[#  11]+0.182*[#   2]+0.182*[#   3]+0.182*[#   4]+0.025*[#  15]
          +0.025*[#  19]+0.025*[#  23]+0.020*[#  16]+0.020*[#  17]+0.020*[#  20]
          +0.020*[#  22]+0.020*[#  25]+0.020*[#  26]+0.013*[#  10]
    |psi|^2 = 0.971
==== e(  24) =    10.29895 eV ==== 
     psi = 0.217*[#   2]+0.217*[#   3]+0.217*[#   4]+0.043*[#  18]+0.043*[#  21]
          +0.043*[#  24]+0.005*[#  16]+0.005*[#  17]+0.005*[#  20]+0.005*[#  22]
          +0.005*[#  25]+0.005*[#  26]
    |psi|^2 = 0.813
==== e(  25) =    10.29895 eV ==== 
     psi = 0.217*[#   2]+0.217*[#   3]+0.217*[#   4]+0.043*[#  18]+0.043*[#  21]
          +0.043*[#  24]+0.005*[#  16]+0.005*[#  17]+0.005*[#  20]+0.005*[#  22]
          +0.005*[#  25]+0.005*[#  26]
    |psi|^2 = 0.813
==== e(  26) =    10.46703 eV ==== 
     psi = 0.002*[#  16]+0.002*[#  17]+0.002*[#  20]+0.002*[#  22]+0.002*[#  25]
          +0.002*[#  26]
    |psi|^2 = 0.012
==== e(  27) =    11.96446 eV ==== 
     psi = 0.319*[#  11]+0.071*[#   2]+0.071*[#   3]+0.071*[#   4]+0.004*[#  10]
          
    |psi|^2 = 0.537
==== e(  28) =    12.17844 eV ==== 

    |psi|^2 = 0.000
==== e(  29) =    12.64533 eV ==== 

    |psi|^2 = 0.002
==== e(  30) =    13.55407 eV ==== 
     psi = 0.049*[#   2]+0.049*[#   3]+0.049*[#   4]+0.011*[#  18]+0.011*[#  21]
          +0.011*[#  24]
    |psi|^2 = 0.180
==== e(  31) =    13.55407 eV ==== 
     psi = 0.049*[#   2]+0.049*[#   3]+0.049*[#   4]+0.011*[#  18]+0.011*[#  21]
          +0.011*[#  24]
    |psi|^2 = 0.180
==== e(  32) =    14.21906 eV ==== 
     psi = 0.346*[#  11]+0.029*[#   2]+0.029*[#   3]+0.029*[#   4]+0.002*[#  10]
          
    |psi|^2 = 0.441
==== e(  33) =    15.19137 eV ==== 
     psi = 0.001*[#  16]+0.001*[#  17]+0.001*[#  20]+0.001*[#  22]+0.001*[#  25]
          +0.001*[#  26]
    |psi|^2 = 0.007
==== e(  34) =    15.19137 eV ==== 
     psi = 0.001*[#  16]+0.001*[#  17]+0.001*[#  20]+0.001*[#  22]+0.001*[#  25]
          +0.001*[#  26]
    |psi|^2 = 0.007
==== e(  35) =    15.67901 eV ==== 

    |psi|^2 = 0.000
==== e(  36) =    15.96890 eV ==== 

    |psi|^2 = 0.001
==== e(  37) =    16.11736 eV ==== 

    |psi|^2 = 0.001
==== e(  38) =    18.52152 eV ==== 

    |psi|^2 = 0.001
==== e(  39) =    18.52152 eV ==== 

    |psi|^2 = 0.001
==== e(  40) =    19.99106 eV ==== 

    |psi|^2 = 0.000

 k =   0.0000000000  0.0833333333  0.0833333333
==== e(   1) =   -17.22475 eV ==== 
     psi = 0.284*[#  15]+0.284*[#  19]+0.284*[#  23]+0.104*[#  11]+0.021*[#   1]
          +0.020*[#  10]
    |psi|^2 = 1.000
==== e(   2) =   -17.08092 eV ==== 
     psi = 0.324*[#  15]+0.324*[#  19]+0.324*[#  23]+0.013*[#   5]+0.013*[#   8]
          
    |psi|^2 = 0.999
==== e(   3) =   -17.07949 eV ==== 
     psi = 0.323*[#  15]+0.323*[#  19]+0.323*[#  23]+0.012*[#   5]+0.012*[#   8]
          +0.002*[#   2]+0.002*[#   3]+0.002*[#   4]
    |psi|^2 = 0.999
==== e(   4) =   -16.00784 eV ==== 
     psi = 0.963*[#  10]+0.010*[#  15]+0.010*[#  19]+0.010*[#  23]+0.004*[#  11]
          
    |psi|^2 = 1.000
==== e(   5) =   -11.01668 eV ==== 
     psi = 0.333*[#   6]+0.333*[#   7]+0.333*[#   9]
    |psi|^2 = 1.000
==== e(   6) =   -11.01625 eV ==== 
     psi = 0.333*[#   6]+0.333*[#   7]+0.333*[#   9]
    |psi|^2 = 1.000
==== e(   7) =   -11.01622 eV ==== 
     psi = 0.333*[#   6]+0.333*[#   7]+0.333*[#   9]
    |psi|^2 = 1.000
==== e(   8) =   -10.81479 eV ==== 
     psi = 0.487*[#   5]+0.487*[#   8]+0.008*[#  15]+0.008*[#  19]+0.008*[#  23]
          
    |psi|^2 = 1.000
==== e(   9) =   -10.80163 eV ==== 
     psi = 0.487*[#   5]+0.487*[#   8]+0.008*[#  15]+0.008*[#  19]+0.008*[#  23]
          
    |psi|^2 = 1.000
==== e(  10) =    -2.86201 eV ==== 
     psi = 0.318*[#  12]+0.318*[#  13]+0.318*[#  14]+0.006*[#   2]+0.006*[#   3]
          +0.006*[#   4]+0.004*[#  16]+0.004*[#  17]+0.004*[#  20]+0.004*[#  22]
          +0.004*[#  25]+0.004*[#  26]+0.001*[#  18]+0.001*[#  21]+0.001*[#  24]
          
    |psi|^2 = 1.000
==== e(  11) =    -2.86051 eV ==== 
     psi = 0.315*[#  12]+0.315*[#  13]+0.315*[#  14]+0.007*[#   1]+0.006*[#  11]
          +0.005*[#   2]+0.005*[#   3]+0.005*[#   4]+0.003*[#  16]+0.003*[#  17]
          +0.003*[#  20]+0.003*[#  22]+0.003*[#  25]+0.003*[#  26]+0.002*[#  18]
          +0.002*[#  21]+0.002*[#  24]
    |psi|^2 = 1.000
==== e(  12) =    -2.84532 eV ==== 
     psi = 0.319*[#  12]+0.319*[#  13]+0.319*[#  14]+0.005*[#   2]+0.005*[#   3]
          +0.005*[#   4]+0.004*[#  16]+0.004*[#  17]+0.004*[#  20]+0.004*[#  22]
          +0.004*[#  25]+0.004*[#  26]+0.001*[#  18]+0.001*[#  21]+0.001*[#  24]
          
    |psi|^2 = 1.000
==== e(  13) =    -1.29936 eV ==== 
     psi = 0.656*[#   1]+0.096*[#  11]+0.050*[#  18]+0.050*[#  21]+0.050*[#  24]
          +0.017*[#  15]+0.017*[#  19]+0.017*[#  23]+0.008*[#  12]+0.008*[#  13]
          +0.008*[#  14]+0.007*[#   2]+0.007*[#   3]+0.007*[#   4]+0.001*[#  10]
          
    |psi|^2 = 0.999
==== e(  14) =     0.11439 eV ==== 
     psi = 0.238*[#  18]+0.238*[#  21]+0.238*[#  24]+0.062*[#   2]+0.062*[#   3]
          +0.062*[#   4]+0.013*[#  16]+0.013*[#  17]+0.013*[#  20]+0.013*[#  22]
          +0.013*[#  25]+0.013*[#  26]+0.007*[#  12]+0.007*[#  13]+0.007*[#  14]
          
    |psi|^2 = 0.998
==== e(  15) =     0.19069 eV ==== 
     psi = 0.239*[#  18]+0.239*[#  21]+0.239*[#  24]+0.058*[#   2]+0.058*[#   3]
          +0.058*[#   4]+0.013*[#  16]+0.013*[#  17]+0.013*[#  20]+0.013*[#  22]
          +0.013*[#  25]+0.013*[#  26]+0.008*[#  12]+0.008*[#  13]+0.008*[#  14]
          
    |psi|^2 = 0.997
==== e(  16) =     0.46195 eV ==== 
     psi = 0.172*[#  18]+0.172*[#  21]+0.172*[#  24]+0.118*[#   1]+0.054*[#   2]
          +0.054*[#   3]+0.054*[#   4]+0.031*[#  11]+0.023*[#  16]+0.023*[#  17]
          +0.023*[#  20]+0.023*[#  22]+0.023*[#  25]+0.023*[#  26]+0.005*[#  15]
          +0.005*[#  19]+0.005*[#  23]+0.004*[#  12]+0.004*[#  13]+0.004*[#  14]
          +0.002*[#  10]
    |psi|^2 = 0.998
==== e(  17) =     1.60671 eV ==== 
     psi = 0.165*[#  16]+0.165*[#  17]+0.165*[#  20]+0.165*[#  22]+0.165*[#  25]
          +0.165*[#  26]
    |psi|^2 = 0.991
==== e(  18) =     1.62263 eV ==== 
     psi = 0.165*[#  16]+0.165*[#  17]+0.165*[#  20]+0.165*[#  22]+0.165*[#  25]
          +0.165*[#  26]
    |psi|^2 = 0.991
==== e(  19) =     1.63468 eV ==== 
     psi = 0.165*[#  16]+0.165*[#  17]+0.165*[#  20]+0.165*[#  22]+0.165*[#  25]
          +0.165*[#  26]
    |psi|^2 = 0.992
==== e(  20) =     1.71321 eV ==== 
     psi = 0.143*[#  16]+0.143*[#  17]+0.143*[#  20]+0.143*[#  22]+0.143*[#  25]
          +0.143*[#  26]+0.040*[#  18]+0.040*[#  21]+0.040*[#  24]+0.005*[#  12]
          +0.005*[#  13]+0.005*[#  14]
    |psi|^2 = 0.993
==== e(  21) =     1.72733 eV ==== 
     psi = 0.142*[#  16]+0.142*[#  17]+0.142*[#  20]+0.142*[#  22]+0.142*[#  25]
          +0.142*[#  26]+0.041*[#  18]+0.041*[#  21]+0.041*[#  24]+0.005*[#  12]
          +0.005*[#  13]+0.005*[#  14]
    |psi|^2 = 0.994
==== e(  22) =     1.73375 eV ==== 
     psi = 0.131*[#  16]+0.131*[#  17]+0.131*[#  20]+0.131*[#  22]+0.131*[#  25]
          +0.131*[#  26]+0.057*[#  18]+0.057*[#  21]+0.057*[#  24]+0.021*[#   1]
          +0.004*[#  12]+0.004*[#  13]+0.004*[#  14]
    |psi|^2 = 0.993
==== e(  23) =     9.46524 eV ==== 
     psi = 0.615*[#  11]+0.155*[#   1]+0.030*[#   2]+0.030*[#   3]+0.030*[#   4]
          +0.015*[#  15]+0.015*[#  19]+0.015*[#  23]+0.012*[#  10]+0.007*[#  18]
          +0.007*[#  21]+0.007*[#  24]+0.003*[#  16]+0.003*[#  17]+0.003*[#  20]
          +0.003*[#  22]+0.003*[#  25]+0.003*[#  26]
    |psi|^2 = 0.957
==== e(  24) =     9.91697 eV ==== 
     psi = 0.036*[#   2]+0.036*[#   3]+0.036*[#   4]+0.005*[#  18]+0.005*[#  21]
          +0.005*[#  24]
    |psi|^2 = 0.131
==== e(  25) =     9.95272 eV ==== 
     psi = 0.031*[#  11]+0.007*[#   1]+0.004*[#   2]+0.004*[#   3]+0.004*[#   4]
          
    |psi|^2 = 0.054
==== e(  26) =    10.91733 eV ==== 
     psi = 0.227*[#   2]+0.227*[#   3]+0.227*[#   4]+0.044*[#  18]+0.044*[#  21]
          +0.044*[#  24]+0.007*[#  16]+0.007*[#  17]+0.007*[#  20]+0.007*[#  22]
          +0.007*[#  25]+0.007*[#  26]+0.001*[#  12]+0.001*[#  13]+0.001*[#  14]
          
    |psi|^2 = 0.855
==== e(  27) =    11.03270 eV ==== 
     psi = 0.185*[#   2]+0.185*[#   3]+0.185*[#   4]+0.082*[#  11]+0.034*[#  18]
          +0.034*[#  21]+0.034*[#  24]+0.011*[#   1]+0.005*[#  16]+0.005*[#  17]
          +0.005*[#  20]+0.005*[#  22]+0.005*[#  25]+0.005*[#  26]+0.001*[#  12]
          +0.001*[#  13]+0.001*[#  14]
    |psi|^2 = 0.783
==== e(  28) =    11.06083 eV ==== 
     psi = 0.226*[#   2]+0.226*[#   3]+0.226*[#   4]+0.043*[#  18]+0.043*[#  21]
          +0.043*[#  24]+0.007*[#  16]+0.007*[#  17]+0.007*[#  20]+0.007*[#  22]
          +0.007*[#  25]+0.007*[#  26]+0.001*[#  12]+0.001*[#  13]+0.001*[#  14]
          +0.001*[#  15]+0.001*[#  19]+0.001*[#  23]
    |psi|^2 = 0.855
==== e(  29) =    11.88685 eV ==== 

    |psi|^2 = 0.001
==== e(  30) =    12.20381 eV ==== 
     psi = 0.035*[#   2]+0.035*[#   3]+0.035*[#   4]+0.007*[#  18]+0.007*[#  21]
          +0.007*[#  24]
    |psi|^2 = 0.129
==== e(  31) =    12.20749 eV ==== 
     psi = 0.042*[#   2]+0.042*[#   3]+0.042*[#   4]+0.014*[#  11]+0.008*[#  18]
          +0.008*[#  21]+0.008*[#  24]+0.002*[#   1]
    |psi|^2 = 0.171
==== e(  32) =    16.84090 eV ==== 

    |psi|^2 = 0.004
==== e(  33) =    17.04897 eV ==== 
     psi = 0.001*[#   2]+0.001*[#   3]+0.001*[#   4]
    |psi|^2 = 0.009
==== e(  34) =    17.34468 eV ==== 

    |psi|^2 = 0.006
==== e(  35) =    17.36396 eV ==== 

    |psi|^2 = 0.006
==== e(  36) =    17.45607 eV ==== 

    |psi|^2 = 0.006
==== e(  37) =    18.05924 eV ==== 
     psi = 0.001*[#   2]+0.001*[#   3]+0.001*[#   4]
    |psi|^2 = 0.007
==== e(  38) =    18.17712 eV ==== 
     psi = 0.002*[#   2]+0.002*[#   3]+0.002*[#   4]+0.002*[#  18]+0.002*[#  21]
          +0.002*[#  24]
    |psi|^2 = 0.011
==== e(  39) =    18.42229 eV ==== 

    |psi|^2 = 0.000
==== e(  40) =    19.17184 eV ==== 

    |psi|^2 = 0.004

 k =   0.0000000000  0.0833333333  0.1666666667
==== e(   1) =   -17.21217 eV ==== 
     psi = 0.287*[#  15]+0.287*[#  19]+0.287*[#  23]+0.093*[#  11]+0.022*[#   1]
          +0.018*[#  10]+0.002*[#   2]+0.002*[#   3]+0.002*[#   4]
    |psi|^2 = 1.000
==== e(   2) =   -17.08048 eV ==== 
     psi = 0.324*[#  15]+0.324*[#  19]+0.324*[#  23]+0.013*[#   5]+0.013*[#   8]
          
    |psi|^2 = 0.999
==== e(   3) =   -17.07572 eV ==== 
     psi = 0.320*[#  15]+0.320*[#  19]+0.320*[#  23]+0.010*[#   5]+0.010*[#   8]
          +0.005*[#   2]+0.005*[#   3]+0.005*[#   4]
    |psi|^2 = 0.999
==== e(   4) =   -16.01086 eV ==== 
     psi = 0.966*[#  10]+0.009*[#  15]+0.009*[#  19]+0.009*[#  23]+0.003*[#  11]
          +0.001*[#   2]+0.001*[#   3]+0.001*[#   4]
    |psi|^2 = 1.000
==== e(   5) =   -11.01785 eV ==== 
     psi = 0.333*[#   6]+0.333*[#   7]+0.333*[#   9]
    |psi|^2 = 1.000
==== e(   6) =   -11.01742 eV ==== 
     psi = 0.333*[#   6]+0.333*[#   7]+0.333*[#   9]
    |psi|^2 = 1.000
==== e(   7) =   -11.01619 eV ==== 
     psi = 0.333*[#   6]+0.333*[#   7]+0.333*[#   9]
    |psi|^2 = 1.000
==== e(   8) =   -10.84829 eV ==== 
     psi = 0.488*[#   5]+0.488*[#   8]+0.007*[#  15]+0.007*[#  19]+0.007*[#  23]
          +0.001*[#  18]+0.001*[#  21]+0.001*[#  24]
    |psi|^2 = 1.000
==== e(   9) =   -10.80419 eV ==== 
     psi = 0.487*[#   5]+0.487*[#   8]+0.008*[#  15]+0.008*[#  19]+0.008*[#  23]
          
    |psi|^2 = 1.000
==== e(  10) =    -2.89311 eV ==== 
     psi = 0.310*[#  12]+0.310*[#  13]+0.310*[#  14]+0.015*[#   1]+0.010*[#  11]
          +0.005*[#   2]+0.005*[#   3]+0.005*[#   4]+0.003*[#  16]+0.003*[#  17]
          +0.003*[#  18]+0.003*[#  20]+0.003*[#  21]+0.003*[#  22]+0.003*[#  24]
          +0.003*[#  25]+0.003*[#  26]+0.001*[#  15]+0.001*[#  19]+0.001*[#  23]
          
    |psi|^2 = 1.000
==== e(  11) =    -2.84921 eV ==== 
     psi = 0.318*[#  12]+0.318*[#  13]+0.318*[#  14]+0.005*[#   2]+0.005*[#   3]
          +0.005*[#   4]+0.004*[#   1]+0.003*[#  16]+0.003*[#  17]+0.003*[#  20]
          +0.003*[#  22]+0.003*[#  25]+0.003*[#  26]+0.003*[#  11]+0.001*[#  18]
          +0.001*[#  21]+0.001*[#  24]
    |psi|^2 = 1.000
==== e(  12) =    -2.83256 eV ==== 
     psi = 0.321*[#  12]+0.321*[#  13]+0.321*[#  14]+0.004*[#   2]+0.004*[#   3]
          +0.004*[#   4]+0.003*[#  16]+0.003*[#  17]+0.003*[#  20]+0.003*[#  22]
          +0.003*[#  25]+0.003*[#  26]
    |psi|^2 = 1.000
==== e(  13) =    -1.57095 eV ==== 
     psi = 0.610*[#   1]+0.071*[#  11]+0.069*[#  18]+0.069*[#  21]+0.069*[#  24]
          +0.016*[#  12]+0.016*[#  13]+0.016*[#  14]+0.013*[#  15]+0.013*[#  19]
          +0.013*[#  23]+0.007*[#   2]+0.007*[#   3]+0.007*[#   4]
    |psi|^2 = 0.998
==== e(  14) =     0.11696 eV ==== 
     psi = 0.240*[#  18]+0.240*[#  21]+0.240*[#  24]+0.062*[#   2]+0.062*[#   3]
          +0.062*[#   4]+0.012*[#  16]+0.012*[#  17]+0.012*[#  20]+0.012*[#  22]
          +0.012*[#  25]+0.012*[#  26]+0.006*[#  12]+0.006*[#  13]+0.006*[#  14]
          
    |psi|^2 = 0.998
==== e(  15) =     0.22986 eV ==== 
     psi = 0.239*[#  18]+0.239*[#  21]+0.239*[#  24]+0.057*[#   2]+0.057*[#   3]
          +0.057*[#   4]+0.013*[#  16]+0.013*[#  17]+0.013*[#  20]+0.013*[#  22]
          +0.013*[#  25]+0.013*[#  26]+0.007*[#  12]+0.007*[#  13]+0.007*[#  14]
          +0.004*[#   1]
    |psi|^2 = 0.997
==== e(  16) =     0.81333 eV ==== 
     psi = 0.121*[#   1]+0.121*[#  18]+0.121*[#  21]+0.121*[#  24]+0.049*[#  16]
          +0.049*[#  17]+0.049*[#  20]+0.049*[#  22]+0.049*[#  25]+0.049*[#  26]
          +0.048*[#   2]+0.048*[#   3]+0.048*[#   4]+0.041*[#  11]+0.007*[#  15]
          +0.007*[#  19]+0.007*[#  23]+0.003*[#  10]+0.003*[#  12]+0.003*[#  13]
          +0.003*[#  14]
    |psi|^2 = 0.997
==== e(  17) =     1.58384 eV ==== 
     psi = 0.165*[#  16]+0.165*[#  17]+0.165*[#  20]+0.165*[#  22]+0.165*[#  25]
          +0.165*[#  26]
    |psi|^2 = 0.989
==== e(  18) =     1.61390 eV ==== 
     psi = 0.165*[#  16]+0.165*[#  17]+0.165*[#  20]+0.165*[#  22]+0.165*[#  25]
          +0.165*[#  26]
    |psi|^2 = 0.991
==== e(  19) =     1.63520 eV ==== 
     psi = 0.164*[#  16]+0.164*[#  17]+0.164*[#  20]+0.164*[#  22]+0.164*[#  25]
          +0.164*[#  26]+0.002*[#  18]+0.002*[#  21]+0.002*[#  24]
    |psi|^2 = 0.991
==== e(  20) =     1.70046 eV ==== 
     psi = 0.144*[#  16]+0.144*[#  17]+0.144*[#  20]+0.144*[#  22]+0.144*[#  25]
          +0.144*[#  26]+0.037*[#  18]+0.037*[#  21]+0.037*[#  24]+0.005*[#  12]
          +0.005*[#  13]+0.005*[#  14]
    |psi|^2 = 0.993
==== e(  21) =     1.72032 eV ==== 
     psi = 0.143*[#  16]+0.143*[#  17]+0.143*[#  20]+0.143*[#  22]+0.143*[#  25]
          +0.143*[#  26]+0.040*[#  18]+0.040*[#  21]+0.040*[#  24]+0.005*[#  12]
          +0.005*[#  13]+0.005*[#  14]+0.002*[#   1]
    |psi|^2 = 0.993
==== e(  22) =     1.81014 eV ==== 
     psi = 0.105*[#  16]+0.105*[#  17]+0.105*[#  20]+0.105*[#  22]+0.105*[#  25]
          +0.105*[#  26]+0.094*[#  18]+0.094*[#  21]+0.094*[#  24]+0.065*[#   1]
          +0.002*[#  12]+0.002*[#  13]+0.002*[#  14]
    |psi|^2 = 0.993
==== e(  23) =     9.32344 eV ==== 
     psi = 0.419*[#  11]+0.104*[#   1]+0.083*[#   2]+0.083*[#   3]+0.083*[#   4]
          +0.015*[#  18]+0.015*[#  21]+0.015*[#  24]+0.014*[#  15]+0.014*[#  19]
          +0.014*[#  23]+0.011*[#  10]+0.007*[#  16]+0.007*[#  17]+0.007*[#  20]
          +0.007*[#  22]+0.007*[#  25]+0.007*[#  26]
    |psi|^2 = 0.910
==== e(  24) =    10.00406 eV ==== 
     psi = 0.045*[#   2]+0.045*[#   3]+0.045*[#   4]+0.006*[#  18]+0.006*[#  21]
          +0.006*[#  24]+0.005*[#  11]+0.001*[#  16]+0.001*[#  17]+0.001*[#  20]
          +0.001*[#  22]+0.001*[#  25]+0.001*[#  26]+0.001*[#   1]
    |psi|^2 = 0.173
==== e(  25) =    10.15277 eV ==== 
     psi = 0.127*[#  11]+0.027*[#   2]+0.027*[#   3]+0.027*[#   4]+0.024*[#   1]
          +0.003*[#  18]+0.003*[#  21]+0.003*[#  24]+0.003*[#  15]+0.003*[#  19]
          +0.003*[#  23]
    |psi|^2 = 0.258
==== e(  26) =    10.74578 eV ==== 
     psi = 0.217*[#   2]+0.217*[#   3]+0.217*[#   4]+0.042*[#  18]+0.042*[#  21]
          +0.042*[#  24]+0.006*[#  16]+0.006*[#  17]+0.006*[#  20]+0.006*[#  22]
          +0.006*[#  25]+0.006*[#  26]
    |psi|^2 = 0.817
==== e(  27) =    10.84474 eV ==== 
     psi = 0.167*[#   2]+0.167*[#   3]+0.167*[#   4]+0.053*[#  11]+0.032*[#  18]
          +0.032*[#  21]+0.032*[#  24]+0.006*[#   1]+0.005*[#  16]+0.005*[#  17]
          +0.005*[#  20]+0.005*[#  22]+0.005*[#  25]+0.005*[#  26]
    |psi|^2 = 0.690
==== e(  28) =    11.18736 eV ==== 
     psi = 0.149*[#   2]+0.149*[#   3]+0.149*[#   4]+0.123*[#  11]+0.025*[#  18]
          +0.025*[#  21]+0.025*[#  24]+0.015*[#   1]+0.003*[#  16]+0.003*[#  17]
          +0.003*[#  20]+0.003*[#  22]+0.003*[#  25]+0.003*[#  26]+0.003*[#  15]
          +0.003*[#  19]+0.003*[#  23]+0.002*[#  12]+0.002*[#  13]+0.002*[#  14]
          
    |psi|^2 = 0.692
==== e(  29) =    11.91117 eV ==== 

    |psi|^2 = 0.003
==== e(  30) =    12.49584 eV ==== 
     psi = 0.045*[#   2]+0.045*[#   3]+0.045*[#   4]+0.009*[#  18]+0.009*[#  21]
          +0.009*[#  24]
    |psi|^2 = 0.166
==== e(  31) =    12.53768 eV ==== 
     psi = 0.054*[#   2]+0.054*[#   3]+0.054*[#   4]+0.032*[#  11]+0.010*[#  18]
          +0.010*[#  21]+0.010*[#  24]+0.003*[#   1]
    |psi|^2 = 0.234
==== e(  32) =    16.26900 eV ==== 

    |psi|^2 = 0.004
==== e(  33) =    16.43195 eV ==== 
     psi = 0.001*[#   2]+0.001*[#   3]+0.001*[#   4]
    |psi|^2 = 0.009
==== e(  34) =    17.06300 eV ==== 

    |psi|^2 = 0.005
==== e(  35) =    17.40446 eV ==== 

    |psi|^2 = 0.006
==== e(  36) =    17.48063 eV ==== 

    |psi|^2 = 0.005
==== e(  37) =    17.76696 eV ==== 

    |psi|^2 = 0.005
==== e(  38) =    17.92527 eV ==== 
     psi = 0.001*[#  18]+0.001*[#  21]+0.001*[#  24]
    |psi|^2 = 0.008
==== e(  39) =    18.49080 eV ==== 

    |psi|^2 = 0.002
==== e(  40) =    19.01502 eV ==== 

    |psi|^2 = 0.002

 k =   0.0000000000  0.0833333333  0.2500000000
==== e(   1) =   -17.19481 eV ==== 
     psi = 0.293*[#  15]+0.293*[#  19]+0.293*[#  23]+0.073*[#  11]+0.023*[#   1]
          +0.014*[#  10]+0.002*[#   2]+0.002*[#   3]+0.002*[#   4]
    |psi|^2 = 1.000
==== e(   2) =   -17.08020 eV ==== 
     psi = 0.324*[#  15]+0.324*[#  19]+0.324*[#  23]+0.012*[#   5]+0.012*[#   8]
          +0.001*[#   2]+0.001*[#   3]+0.001*[#   4]
    |psi|^2 = 0.999
==== e(   3) =   -17.07021 eV ==== 
     psi = 0.316*[#  15]+0.316*[#  19]+0.316*[#  23]+0.011*[#   2]+0.011*[#   3]
          +0.011*[#   4]+0.008*[#   5]+0.008*[#   8]+0.003*[#  11]+0.001*[#  10]
          
    |psi|^2 = 0.999
==== e(   4) =   -16.01498 eV ==== 
     psi = 0.968*[#  10]+0.008*[#  15]+0.008*[#  19]+0.008*[#  23]+0.002*[#   2]
          +0.002*[#   3]+0.002*[#   4]+0.001*[#  11]
    |psi|^2 = 1.000
==== e(   5) =   -11.01946 eV ==== 
     psi = 0.333*[#   6]+0.333*[#   7]+0.333*[#   9]
    |psi|^2 = 1.000
==== e(   6) =   -11.01904 eV ==== 
     psi = 0.333*[#   6]+0.333*[#   7]+0.333*[#   9]
    |psi|^2 = 1.000
==== e(   7) =   -11.01614 eV ==== 
     psi = 0.333*[#   6]+0.333*[#   7]+0.333*[#   9]
    |psi|^2 = 1.000
==== e(   8) =   -10.89725 eV ==== 
     psi = 0.488*[#   5]+0.488*[#   8]+0.005*[#  15]+0.005*[#  19]+0.005*[#  23]
          +0.002*[#  18]+0.002*[#  21]+0.002*[#  24]
    |psi|^2 = 1.000
==== e(   9) =   -10.80457 eV ==== 
     psi = 0.487*[#   5]+0.487*[#   8]+0.008*[#  15]+0.008*[#  19]+0.008*[#  23]
          
    |psi|^2 = 1.000
==== e(  10) =    -2.93898 eV ==== 
     psi = 0.299*[#  12]+0.299*[#  13]+0.299*[#  14]+0.038*[#   1]+0.016*[#  11]
          +0.005*[#  18]+0.005*[#  21]+0.005*[#  24]+0.005*[#   2]+0.005*[#   3]
          +0.005*[#   4]+0.002*[#  15]+0.002*[#  19]+0.002*[#  23]+0.002*[#  16]
          +0.002*[#  17]+0.002*[#  20]+0.002*[#  22]+0.002*[#  25]+0.002*[#  26]
          
    |psi|^2 = 1.000
==== e(  11) =    -2.83218 eV ==== 
     psi = 0.321*[#  12]+0.321*[#  13]+0.321*[#  14]+0.003*[#   2]+0.003*[#   3]
          +0.003*[#   4]+0.003*[#   1]+0.003*[#  16]+0.003*[#  17]+0.003*[#  20]
          +0.003*[#  22]+0.003*[#  25]+0.003*[#  26]+0.002*[#  11]+0.001*[#  18]
          +0.001*[#  21]+0.001*[#  24]
    |psi|^2 = 1.000
==== e(  12) =    -2.81491 eV ==== 
     psi = 0.324*[#  12]+0.324*[#  13]+0.324*[#  14]+0.003*[#   2]+0.003*[#   3]
          +0.003*[#   4]+0.003*[#  16]+0.003*[#  17]+0.003*[#  20]+0.003*[#  22]
          +0.003*[#  25]+0.003*[#  26]
    |psi|^2 = 1.000
==== e(  13) =    -1.82051 eV ==== 
     psi = 0.589*[#   1]+0.078*[#  18]+0.078*[#  21]+0.078*[#  24]+0.045*[#  11]
          +0.028*[#  12]+0.028*[#  13]+0.028*[#  14]+0.010*[#  15]+0.010*[#  19]
          +0.010*[#  23]+0.005*[#   2]+0.005*[#   3]+0.005*[#   4]
    |psi|^2 = 0.998
==== e(  14) =     0.11983 eV ==== 
     psi = 0.243*[#  18]+0.243*[#  21]+0.243*[#  24]+0.063*[#   2]+0.063*[#   3]
          +0.063*[#   4]+0.012*[#  16]+0.012*[#  17]+0.012*[#  20]+0.012*[#  22]
          +0.012*[#  25]+0.012*[#  26]+0.004*[#  12]+0.004*[#  13]+0.004*[#  14]
          
    |psi|^2 = 0.998
==== e(  15) =     0.24119 eV ==== 
     psi = 0.240*[#  18]+0.240*[#  21]+0.240*[#  24]+0.057*[#   2]+0.057*[#   3]
          +0.057*[#   4]+0.013*[#  16]+0.013*[#  17]+0.013*[#  20]+0.013*[#  22]
          +0.013*[#  25]+0.013*[#  26]+0.007*[#   1]+0.005*[#  12]+0.005*[#  13]
          +0.005*[#  14]
    |psi|^2 = 0.997
==== e(  16) =     1.09877 eV ==== 
     psi = 0.101*[#  16]+0.101*[#  17]+0.101*[#  20]+0.101*[#  22]+0.101*[#  25]
          +0.101*[#  26]+0.057*[#   1]+0.050*[#  18]+0.050*[#  21]+0.050*[#  24]
          +0.041*[#  11]+0.037*[#   2]+0.037*[#   3]+0.037*[#   4]+0.005*[#  15]
          +0.005*[#  19]+0.005*[#  23]+0.004*[#  10]+0.002*[#  12]+0.002*[#  13]
          +0.002*[#  14]
    |psi|^2 = 0.996
==== e(  17) =     1.56150 eV ==== 
     psi = 0.164*[#  16]+0.164*[#  17]+0.164*[#  20]+0.164*[#  22]+0.164*[#  25]
          +0.164*[#  26]
    |psi|^2 = 0.987
==== e(  18) =     1.60323 eV ==== 
     psi = 0.163*[#  16]+0.163*[#  17]+0.163*[#  20]+0.163*[#  22]+0.163*[#  25]
          +0.163*[#  26]+0.004*[#  18]+0.004*[#  21]+0.004*[#  24]
    |psi|^2 = 0.990
==== e(  19) =     1.62770 eV ==== 
     psi = 0.161*[#  16]+0.161*[#  17]+0.161*[#  20]+0.161*[#  22]+0.161*[#  25]
          +0.161*[#  26]+0.007*[#  18]+0.007*[#  21]+0.007*[#  24]
    |psi|^2 = 0.991
==== e(  20) =     1.68234 eV ==== 
     psi = 0.148*[#  16]+0.148*[#  17]+0.148*[#  20]+0.148*[#  22]+0.148*[#  25]
          +0.148*[#  26]+0.031*[#  18]+0.031*[#  21]+0.031*[#  24]+0.004*[#  12]
          +0.004*[#  13]+0.004*[#  14]
    |psi|^2 = 0.992
==== e(  21) =     1.70652 eV ==== 
     psi = 0.147*[#  16]+0.147*[#  17]+0.147*[#  20]+0.147*[#  22]+0.147*[#  25]
          +0.147*[#  26]+0.031*[#  18]+0.031*[#  21]+0.031*[#  24]+0.004*[#  12]
          +0.004*[#  13]+0.004*[#  14]+0.001*[#   1]
    |psi|^2 = 0.993
==== e(  22) =     2.06262 eV ==== 
     psi = 0.165*[#  18]+0.165*[#  21]+0.165*[#  24]+0.158*[#   1]+0.051*[#  16]
          +0.051*[#  17]+0.051*[#  20]+0.051*[#  22]+0.051*[#  25]+0.051*[#  26]
          +0.005*[#   2]+0.005*[#   3]+0.005*[#   4]+0.004*[#  11]+0.003*[#  15]
          +0.003*[#  19]+0.003*[#  23]+0.001*[#   5]+0.001*[#   8]
    |psi|^2 = 0.994
==== e(  23) =     8.99998 eV ==== 
     psi = 0.279*[#  11]+0.136*[#   2]+0.136*[#   3]+0.136*[#   4]+0.062*[#   1]
          +0.018*[#  18]+0.018*[#  21]+0.018*[#  24]+0.015*[#  15]+0.015*[#  19]
          +0.015*[#  23]+0.011*[#  16]+0.011*[#  17]+0.011*[#  20]+0.011*[#  22]
          +0.011*[#  25]+0.011*[#  26]+0.011*[#  10]
    |psi|^2 = 0.927
==== e(  24) =    10.12782 eV ==== 
     psi = 0.061*[#   2]+0.061*[#   3]+0.061*[#   4]+0.010*[#  18]+0.010*[#  21]
          +0.010*[#  24]+0.003*[#  11]+0.002*[#  16]+0.002*[#  17]+0.002*[#  20]
          +0.002*[#  22]+0.002*[#  25]+0.002*[#  26]
    |psi|^2 = 0.231
==== e(  25) =    10.45627 eV ==== 
     psi = 0.117*[#   2]+0.117*[#   3]+0.117*[#   4]+0.057*[#  11]+0.021*[#  18]
          +0.021*[#  21]+0.021*[#  24]+0.011*[#   1]+0.004*[#  16]+0.004*[#  17]
          +0.004*[#  20]+0.004*[#  22]+0.004*[#  25]+0.004*[#  26]+0.002*[#  15]
          +0.002*[#  19]+0.002*[#  23]
    |psi|^2 = 0.514
==== e(  26) =    10.57006 eV ==== 
     psi = 0.214*[#   2]+0.214*[#   3]+0.214*[#   4]+0.042*[#  18]+0.042*[#  21]
          +0.042*[#  24]+0.006*[#  16]+0.006*[#  17]+0.006*[#  20]+0.006*[#  22]
          +0.006*[#  25]+0.006*[#  26]
    |psi|^2 = 0.805
==== e(  27) =    10.81420 eV ==== 
     psi = 0.181*[#  11]+0.056*[#   2]+0.056*[#   3]+0.056*[#   4]+0.020*[#   1]
          +0.010*[#  18]+0.010*[#  21]+0.010*[#  24]+0.002*[#  15]+0.002*[#  19]
          +0.002*[#  23]+0.001*[#  16]+0.001*[#  17]+0.001*[#  20]+0.001*[#  22]
          +0.001*[#  25]+0.001*[#  26]
    |psi|^2 = 0.414
==== e(  28) =    11.39937 eV ==== 
     psi = 0.222*[#  11]+0.104*[#   2]+0.104*[#   3]+0.104*[#   4]+0.022*[#   1]
          +0.013*[#  18]+0.013*[#  21]+0.013*[#  24]+0.003*[#  15]+0.003*[#  19]
          +0.003*[#  23]+0.002*[#  12]+0.002*[#  13]+0.002*[#  14]+0.001*[#  16]
          +0.001*[#  17]+0.001*[#  20]+0.001*[#  22]+0.001*[#  25]+0.001*[#  26]
          
    |psi|^2 = 0.621
==== e(  29) =    11.97561 eV ==== 

    |psi|^2 = 0.004
==== e(  30) =    12.81680 eV ==== 
     psi = 0.048*[#   2]+0.048*[#   3]+0.048*[#   4]+0.010*[#  18]+0.010*[#  21]
          +0.010*[#  24]
    |psi|^2 = 0.178
==== e(  31) =    12.90528 eV ==== 
     psi = 0.055*[#   2]+0.055*[#   3]+0.055*[#   4]+0.048*[#  11]+0.010*[#  18]
          +0.010*[#  21]+0.010*[#  24]+0.003*[#   1]
    |psi|^2 = 0.252
==== e(  32) =    15.80390 eV ==== 

    |psi|^2 = 0.004
==== e(  33) =    15.83160 eV ==== 
     psi = 0.001*[#   2]+0.001*[#   3]+0.001*[#   4]
    |psi|^2 = 0.009
==== e(  34) =    16.71633 eV ==== 

    |psi|^2 = 0.003
==== e(  35) =    16.92346 eV ==== 
     psi = 0.001*[#   2]+0.001*[#   3]+0.001*[#   4]
    |psi|^2 = 0.007
==== e(  36) =    17.13772 eV ==== 
     psi = 0.001*[#  11]
    |psi|^2 = 0.006
==== e(  37) =    17.53345 eV ==== 
     psi = 0.003*[#  11]
    |psi|^2 = 0.005
==== e(  38) =    17.83626 eV ==== 

    |psi|^2 = 0.004
==== e(  39) =    17.90981 eV ==== 

    |psi|^2 = 0.003
==== e(  40) =    19.52411 eV ==== 

    |psi|^2 = 0.001

 k =   0.0000000000  0.0833333333  0.3333333333
==== e(   1) =   -17.17724 eV ==== 
     psi = 0.303*[#  15]+0.303*[#  19]+0.303*[#  23]+0.045*[#  11]+0.026*[#   1]
          +0.008*[#  10]+0.002*[#   2]+0.002*[#   3]+0.002*[#   4]+0.002*[#   5]
          +0.002*[#   8]
    |psi|^2 = 1.000
==== e(   2) =   -17.07996 eV ==== 
     psi = 0.324*[#  15]+0.324*[#  19]+0.324*[#  23]+0.012*[#   5]+0.012*[#   8]
[...]

    |psi|^2 = 0.001
==== e(  37) =    17.62500 eV ==== 

    |psi|^2 = 0.001
==== e(  38) =    18.27959 eV ==== 
     psi = 0.017*[#  11]+0.001*[#  10]
    |psi|^2 = 0.019
==== e(  39) =    18.63575 eV ==== 

    |psi|^2 = 0.002
==== e(  40) =    18.82434 eV ==== 

    |psi|^2 = 0.002

 k =   0.4166666667  0.4166666667 -0.5000000000
==== e(   1) =   -17.05388 eV ==== 
     psi = 0.309*[#  15]+0.309*[#  19]+0.309*[#  23]+0.024*[#   2]+0.024*[#   3]
          +0.024*[#   4]+0.002*[#   1]
    |psi|^2 = 1.000
==== e(   2) =   -17.04822 eV ==== 
     psi = 0.309*[#  15]+0.309*[#  19]+0.309*[#  23]+0.023*[#   2]+0.023*[#   3]
          +0.023*[#   4]
    |psi|^2 = 1.000
==== e(   3) =   -17.04608 eV ==== 
     psi = 0.308*[#  15]+0.308*[#  19]+0.308*[#  23]+0.025*[#   2]+0.025*[#   3]
          +0.025*[#   4]
    |psi|^2 = 1.000
==== e(   4) =   -16.02171 eV ==== 
     psi = 0.938*[#  10]+0.062*[#  11]
    |psi|^2 = 1.000
==== e(   5) =   -11.07294 eV ==== 
     psi = 0.491*[#   5]+0.491*[#   8]+0.006*[#  18]+0.006*[#  21]+0.006*[#  24]
          
    |psi|^2 = 1.000
==== e(   6) =   -11.06066 eV ==== 
     psi = 0.491*[#   5]+0.491*[#   8]+0.005*[#  18]+0.005*[#  21]+0.005*[#  24]
          
    |psi|^2 = 1.000
==== e(   7) =   -11.02853 eV ==== 
     psi = 0.332*[#   6]+0.332*[#   7]+0.332*[#   9]
    |psi|^2 = 1.000
==== e(   8) =   -11.02831 eV ==== 
     psi = 0.332*[#   6]+0.332*[#   7]+0.332*[#   9]
    |psi|^2 = 1.000
==== e(   9) =   -11.02803 eV ==== 
     psi = 0.332*[#   6]+0.332*[#   7]+0.332*[#   9]
    |psi|^2 = 1.000
==== e(  10) =    -3.60484 eV ==== 
     psi = 0.629*[#   1]+0.123*[#  18]+0.123*[#  21]+0.123*[#  24]
    |psi|^2 = 1.000
==== e(  11) =    -3.00528 eV ==== 
     psi = 0.320*[#  12]+0.320*[#  13]+0.320*[#  14]+0.006*[#  16]+0.006*[#  17]
          +0.006*[#  20]+0.006*[#  22]+0.006*[#  25]+0.006*[#  26]+0.001*[#   2]
          +0.001*[#   3]+0.001*[#   4]
    |psi|^2 = 1.000
==== e(  12) =    -2.99622 eV ==== 
     psi = 0.321*[#  12]+0.321*[#  13]+0.321*[#  14]+0.006*[#  16]+0.006*[#  17]
          +0.006*[#  20]+0.006*[#  22]+0.006*[#  25]+0.006*[#  26]
    |psi|^2 = 1.000
==== e(  13) =    -2.98710 eV ==== 
     psi = 0.319*[#  12]+0.319*[#  13]+0.319*[#  14]+0.007*[#  11]+0.005*[#  16]
          +0.005*[#  17]+0.005*[#  20]+0.005*[#  22]+0.005*[#  25]+0.005*[#  26]
          +0.001*[#   2]+0.001*[#   3]+0.001*[#   4]
    |psi|^2 = 1.000
==== e(  14) =     1.43662 eV ==== 
     psi = 0.317*[#  18]+0.317*[#  21]+0.317*[#  24]+0.008*[#   5]+0.008*[#   8]
          +0.006*[#   2]+0.006*[#   3]+0.006*[#   4]+0.001*[#  16]+0.001*[#  17]
          +0.001*[#  20]+0.001*[#  22]+0.001*[#  25]+0.001*[#  26]
    |psi|^2 = 0.993
==== e(  15) =     1.43688 eV ==== 
     psi = 0.156*[#  16]+0.156*[#  17]+0.156*[#  20]+0.156*[#  22]+0.156*[#  25]
          +0.156*[#  26]+0.012*[#  12]+0.012*[#  13]+0.012*[#  14]+0.012*[#  11]
          
    |psi|^2 = 0.992
==== e(  16) =     1.46842 eV ==== 
     psi = 0.140*[#  16]+0.140*[#  17]+0.140*[#  20]+0.140*[#  22]+0.140*[#  25]
          +0.140*[#  26]+0.036*[#  18]+0.036*[#  21]+0.036*[#  24]+0.011*[#  12]
          +0.011*[#  13]+0.011*[#  14]+0.001*[#   2]+0.001*[#   3]+0.001*[#   4]
          
    |psi|^2 = 0.988
==== e(  17) =     1.47293 eV ==== 
     psi = 0.158*[#  16]+0.158*[#  17]+0.158*[#  20]+0.158*[#  22]+0.158*[#  25]
          +0.158*[#  26]+0.012*[#  12]+0.012*[#  13]+0.012*[#  14]
    |psi|^2 = 0.986
==== e(  18) =     1.51244 eV ==== 
     psi = 0.287*[#  18]+0.287*[#  21]+0.287*[#  24]+0.018*[#  16]+0.018*[#  17]
          +0.018*[#  20]+0.018*[#  22]+0.018*[#  25]+0.018*[#  26]+0.007*[#   5]
          +0.007*[#   8]+0.001*[#   2]+0.001*[#   3]+0.001*[#   4]+0.001*[#  12]
          +0.001*[#  13]+0.001*[#  14]
    |psi|^2 = 0.992
==== e(  19) =     1.85836 eV ==== 
     psi = 0.164*[#  16]+0.164*[#  17]+0.164*[#  20]+0.164*[#  22]+0.164*[#  25]
          +0.164*[#  26]+0.003*[#  18]+0.003*[#  21]+0.003*[#  24]
    |psi|^2 = 0.996
==== e(  20) =     1.86361 eV ==== 
     psi = 0.165*[#  16]+0.165*[#  17]+0.165*[#  20]+0.165*[#  22]+0.165*[#  25]
          +0.165*[#  26]+0.001*[#   2]+0.001*[#   3]+0.001*[#   4]
    |psi|^2 = 0.996
==== e(  21) =     1.87946 eV ==== 
     psi = 0.166*[#  16]+0.166*[#  17]+0.166*[#  20]+0.166*[#  22]+0.166*[#  25]
          +0.166*[#  26]
    |psi|^2 = 0.996
==== e(  22) =     4.58094 eV ==== 
     psi = 0.356*[#   1]+0.201*[#  18]+0.201*[#  21]+0.201*[#  24]+0.011*[#   2]
          +0.011*[#   3]+0.011*[#   4]+0.002*[#  15]+0.002*[#  19]+0.002*[#  23]
          
    |psi|^2 = 0.997
==== e(  23) =     7.86266 eV ==== 
     psi = 0.285*[#   2]+0.285*[#   3]+0.285*[#   4]+0.022*[#  15]+0.022*[#  19]
          +0.022*[#  23]+0.001*[#  16]+0.001*[#  17]+0.001*[#  20]+0.001*[#  22]
          +0.001*[#  25]+0.001*[#  26]
    |psi|^2 = 0.932
==== e(  24) =     7.93793 eV ==== 
     psi = 0.281*[#   2]+0.281*[#   3]+0.281*[#   4]+0.021*[#  15]+0.021*[#  19]
          +0.021*[#  23]+0.005*[#  18]+0.005*[#  21]+0.005*[#  24]
    |psi|^2 = 0.926
==== e(  25) =     8.04841 eV ==== 
     psi = 0.273*[#   2]+0.273*[#   3]+0.273*[#   4]+0.020*[#  15]+0.020*[#  19]
          +0.020*[#  23]+0.012*[#   1]+0.010*[#  18]+0.010*[#  21]+0.010*[#  24]
          
    |psi|^2 = 0.925
==== e(  26) =    12.52925 eV ==== 
     psi = 0.450*[#  11]+0.030*[#  10]+0.004*[#   2]+0.004*[#   3]+0.004*[#   4]
          +0.003*[#  16]+0.003*[#  17]+0.003*[#  20]+0.003*[#  22]+0.003*[#  25]
          +0.003*[#  26]
    |psi|^2 = 0.513
==== e(  27) =    12.61744 eV ==== 
     psi = 0.016*[#   2]+0.016*[#   3]+0.016*[#   4]+0.001*[#  15]+0.001*[#  19]
          +0.001*[#  23]
    |psi|^2 = 0.057
==== e(  28) =    12.69503 eV ==== 

    |psi|^2 = 0.006
==== e(  29) =    12.96052 eV ==== 
     psi = 0.171*[#  11]+0.012*[#  10]+0.010*[#   2]+0.010*[#   3]+0.010*[#   4]
          
    |psi|^2 = 0.217
==== e(  30) =    12.99043 eV ==== 
     psi = 0.016*[#   2]+0.016*[#   3]+0.016*[#   4]+0.001*[#  15]+0.001*[#  19]
          +0.001*[#  23]
    |psi|^2 = 0.053
==== e(  31) =    13.35624 eV ==== 
     psi = 0.132*[#  11]+0.009*[#  10]
    |psi|^2 = 0.142
==== e(  32) =    13.78662 eV ==== 
     psi = 0.001*[#  16]+0.001*[#  17]+0.001*[#  20]+0.001*[#  22]+0.001*[#  25]
          +0.001*[#  26]
    |psi|^2 = 0.009
==== e(  33) =    14.35068 eV ==== 
     psi = 0.001*[#  16]+0.001*[#  17]+0.001*[#  20]+0.001*[#  22]+0.001*[#  25]
          +0.001*[#  26]
    |psi|^2 = 0.006
==== e(  34) =    14.55220 eV ==== 
     psi = 0.009*[#  11]
    |psi|^2 = 0.014
==== e(  35) =    17.45163 eV ==== 

    |psi|^2 = 0.002
==== e(  36) =    17.70331 eV ==== 

    |psi|^2 = 0.001
==== e(  37) =    17.81906 eV ==== 

    |psi|^2 = 0.001
==== e(  38) =    18.14989 eV ==== 
     psi = 0.011*[#  11]
    |psi|^2 = 0.012
==== e(  39) =    18.71334 eV ==== 

    |psi|^2 = 0.002
==== e(  40) =    18.90672 eV ==== 

    |psi|^2 = 0.002

 k =   0.4166666667 -0.5000000000 -0.5000000000
==== e(   1) =   -17.05095 eV ==== 
     psi = 0.309*[#  15]+0.309*[#  19]+0.309*[#  23]+0.023*[#   2]+0.023*[#   3]
          +0.023*[#   4]
    |psi|^2 = 1.000
==== e(   2) =   -17.04593 eV ==== 
     psi = 0.308*[#  15]+0.308*[#  19]+0.308*[#  23]+0.025*[#   2]+0.025*[#   3]
          +0.025*[#   4]
    |psi|^2 = 1.000
==== e(   3) =   -17.04593 eV ==== 
     psi = 0.308*[#  15]+0.308*[#  19]+0.308*[#  23]+0.025*[#   2]+0.025*[#   3]
          +0.025*[#   4]
    |psi|^2 = 1.000
==== e(   4) =   -16.02115 eV ==== 
     psi = 0.929*[#  10]+0.070*[#  11]
    |psi|^2 = 1.000
==== e(   5) =   -11.07901 eV ==== 
     psi = 0.491*[#   5]+0.491*[#   8]+0.006*[#  18]+0.006*[#  21]+0.006*[#  24]
          
    |psi|^2 = 1.000
==== e(   6) =   -11.06681 eV ==== 
     psi = 0.491*[#   5]+0.491*[#   8]+0.006*[#  18]+0.006*[#  21]+0.006*[#  24]
          
    |psi|^2 = 1.000
==== e(   7) =   -11.02889 eV ==== 
     psi = 0.332*[#   6]+0.332*[#   7]+0.332*[#   9]
    |psi|^2 = 1.000
==== e(   8) =   -11.02850 eV ==== 
     psi = 0.332*[#   6]+0.332*[#   7]+0.332*[#   9]
    |psi|^2 = 1.000
==== e(   9) =   -11.02850 eV ==== 
     psi = 0.332*[#   6]+0.332*[#   7]+0.332*[#   9]
    |psi|^2 = 1.000
==== e(  10) =    -3.63773 eV ==== 
     psi = 0.629*[#   1]+0.123*[#  18]+0.123*[#  21]+0.123*[#  24]
    |psi|^2 = 1.000
==== e(  11) =    -3.00830 eV ==== 
     psi = 0.320*[#  12]+0.320*[#  13]+0.320*[#  14]+0.006*[#  16]+0.006*[#  17]
          +0.006*[#  20]+0.006*[#  22]+0.006*[#  25]+0.006*[#  26]
    |psi|^2 = 1.000
==== e(  12) =    -3.00830 eV ==== 
     psi = 0.320*[#  12]+0.320*[#  13]+0.320*[#  14]+0.006*[#  16]+0.006*[#  17]
          +0.006*[#  20]+0.006*[#  22]+0.006*[#  25]+0.006*[#  26]
    |psi|^2 = 1.000
==== e(  13) =    -2.99396 eV ==== 
     psi = 0.320*[#  12]+0.320*[#  13]+0.320*[#  14]+0.006*[#  16]+0.006*[#  17]
          +0.006*[#  20]+0.006*[#  22]+0.006*[#  25]+0.006*[#  26]+0.004*[#  11]
          
    |psi|^2 = 1.000
==== e(  14) =     1.45452 eV ==== 
     psi = 0.157*[#  16]+0.157*[#  17]+0.157*[#  20]+0.157*[#  22]+0.157*[#  25]
          +0.157*[#  26]+0.013*[#  12]+0.013*[#  13]+0.013*[#  14]+0.008*[#  11]
          
    |psi|^2 = 0.990
==== e(  15) =     1.47251 eV ==== 
     psi = 0.321*[#  18]+0.321*[#  21]+0.321*[#  24]+0.008*[#   5]+0.008*[#   8]
          +0.004*[#   2]+0.004*[#   3]+0.004*[#   4]
    |psi|^2 = 0.993
==== e(  16) =     1.47402 eV ==== 
     psi = 0.158*[#  16]+0.158*[#  17]+0.158*[#  20]+0.158*[#  22]+0.158*[#  25]
          +0.158*[#  26]+0.012*[#  12]+0.012*[#  13]+0.012*[#  14]
    |psi|^2 = 0.987
==== e(  17) =     1.47403 eV ==== 
     psi = 0.158*[#  16]+0.158*[#  17]+0.158*[#  20]+0.158*[#  22]+0.158*[#  25]
          +0.158*[#  26]+0.012*[#  12]+0.012*[#  13]+0.012*[#  14]
    |psi|^2 = 0.987
==== e(  18) =     1.54481 eV ==== 
     psi = 0.325*[#  18]+0.325*[#  21]+0.325*[#  24]+0.009*[#   5]+0.009*[#   8]
          
    |psi|^2 = 0.993
==== e(  19) =     1.87159 eV ==== 
     psi = 0.166*[#  16]+0.166*[#  17]+0.166*[#  20]+0.166*[#  22]+0.166*[#  25]
          +0.166*[#  26]
    |psi|^2 = 0.996
==== e(  20) =     1.87159 eV ==== 
     psi = 0.166*[#  16]+0.166*[#  17]+0.166*[#  20]+0.166*[#  22]+0.166*[#  25]
          +0.166*[#  26]
    |psi|^2 = 0.996
==== e(  21) =     1.88842 eV ==== 
     psi = 0.166*[#  16]+0.166*[#  17]+0.166*[#  20]+0.166*[#  22]+0.166*[#  25]
          +0.166*[#  26]
    |psi|^2 = 0.996
==== e(  22) =     4.68663 eV ==== 
     psi = 0.362*[#   1]+0.205*[#  18]+0.205*[#  21]+0.205*[#  24]+0.006*[#   2]
          +0.006*[#   3]+0.006*[#   4]
    |psi|^2 = 0.998
==== e(  23) =     7.81653 eV ==== 
     psi = 0.286*[#   2]+0.286*[#   3]+0.286*[#   4]+0.023*[#  15]+0.023*[#  19]
          +0.023*[#  23]
    |psi|^2 = 0.931
==== e(  24) =     7.81653 eV ==== 
     psi = 0.286*[#   2]+0.286*[#   3]+0.286*[#   4]+0.023*[#  15]+0.023*[#  19]
          +0.023*[#  23]
    |psi|^2 = 0.931
==== e(  25) =     7.94554 eV ==== 
     psi = 0.278*[#   2]+0.278*[#   3]+0.278*[#   4]+0.020*[#  15]+0.020*[#  19]
          +0.020*[#  23]+0.008*[#  18]+0.008*[#  21]+0.008*[#  24]+0.006*[#   1]
          
    |psi|^2 = 0.926
==== e(  26) =    12.66311 eV ==== 
     psi = 0.437*[#  11]+0.034*[#  10]+0.002*[#  16]+0.002*[#  17]+0.002*[#  20]
          +0.002*[#  22]+0.002*[#  25]+0.002*[#  26]
    |psi|^2 = 0.483
==== e(  27) =    12.84105 eV ==== 
     psi = 0.015*[#   2]+0.015*[#   3]+0.015*[#   4]+0.001*[#  15]+0.001*[#  19]
          +0.001*[#  23]
    |psi|^2 = 0.051
==== e(  28) =    12.84105 eV ==== 
     psi = 0.015*[#   2]+0.015*[#   3]+0.015*[#   4]+0.001*[#  15]+0.001*[#  19]
          +0.001*[#  23]
    |psi|^2 = 0.051
==== e(  29) =    12.87313 eV ==== 
     psi = 0.016*[#   2]+0.016*[#   3]+0.016*[#   4]+0.001*[#  15]+0.001*[#  19]
          +0.001*[#  23]
    |psi|^2 = 0.053
==== e(  30) =    13.32970 eV ==== 
     psi = 0.300*[#  11]+0.023*[#  10]
    |psi|^2 = 0.325
==== e(  31) =    13.35875 eV ==== 

    |psi|^2 = 0.000
==== e(  32) =    13.75985 eV ==== 
     psi = 0.001*[#  16]+0.001*[#  17]+0.001*[#  20]+0.001*[#  22]+0.001*[#  25]
          +0.001*[#  26]
    |psi|^2 = 0.009
==== e(  33) =    13.75986 eV ==== 
     psi = 0.001*[#  16]+0.001*[#  17]+0.001*[#  20]+0.001*[#  22]+0.001*[#  25]
          +0.001*[#  26]
    |psi|^2 = 0.009
==== e(  34) =    14.40892 eV ==== 
     psi = 0.006*[#  11]
    |psi|^2 = 0.012
==== e(  35) =    17.43482 eV ==== 

    |psi|^2 = 0.002
==== e(  36) =    17.85494 eV ==== 

    |psi|^2 = 0.001
==== e(  37) =    17.85494 eV ==== 

    |psi|^2 = 0.001
==== e(  38) =    18.08033 eV ==== 
     psi = 0.006*[#  11]
    |psi|^2 = 0.007
==== e(  39) =    18.91596 eV ==== 

    |psi|^2 = 0.002
==== e(  40) =    18.91596 eV ==== 

    |psi|^2 = 0.002

 k =  -0.5000000000 -0.5000000000 -0.5000000000
==== e(   1) =   -17.04582 eV ==== 
     psi = 0.308*[#  15]+0.308*[#  19]+0.308*[#  23]+0.025*[#   2]+0.025*[#   3]
          +0.025*[#   4]
    |psi|^2 = 1.000
==== e(   2) =   -17.04582 eV ==== 
     psi = 0.308*[#  15]+0.308*[#  19]+0.308*[#  23]+0.025*[#   2]+0.025*[#   3]
          +0.025*[#   4]
    |psi|^2 = 1.000
==== e(   3) =   -17.04582 eV ==== 
     psi = 0.308*[#  15]+0.308*[#  19]+0.308*[#  23]+0.025*[#   2]+0.025*[#   3]
          +0.025*[#   4]
    |psi|^2 = 1.000
==== e(   4) =   -16.02051 eV ==== 
     psi = 0.919*[#  10]+0.081*[#  11]
    |psi|^2 = 1.000
==== e(   5) =   -11.07900 eV ==== 
     psi = 0.491*[#   5]+0.491*[#   8]+0.006*[#  18]+0.006*[#  21]+0.006*[#  24]
          
    |psi|^2 = 1.000
==== e(   6) =   -11.07900 eV ==== 
     psi = 0.491*[#   5]+0.491*[#   8]+0.006*[#  18]+0.006*[#  21]+0.006*[#  24]
          
    |psi|^2 = 1.000
==== e(   7) =   -11.02898 eV ==== 
     psi = 0.332*[#   6]+0.332*[#   7]+0.332*[#   9]
    |psi|^2 = 1.000
==== e(   8) =   -11.02898 eV ==== 
     psi = 0.332*[#   6]+0.332*[#   7]+0.332*[#   9]
    |psi|^2 = 1.000
==== e(   9) =   -11.02898 eV ==== 
     psi = 0.332*[#   6]+0.332*[#   7]+0.332*[#   9]
    |psi|^2 = 1.000
==== e(  10) =    -3.67082 eV ==== 
     psi = 0.628*[#   1]+0.124*[#  18]+0.124*[#  21]+0.124*[#  24]
    |psi|^2 = 1.000
==== e(  11) =    -3.01090 eV ==== 
     psi = 0.320*[#  12]+0.320*[#  13]+0.320*[#  14]+0.006*[#  16]+0.006*[#  17]
          +0.006*[#  20]+0.006*[#  22]+0.006*[#  25]+0.006*[#  26]
    |psi|^2 = 1.000
==== e(  12) =    -3.01090 eV ==== 
     psi = 0.320*[#  12]+0.320*[#  13]+0.320*[#  14]+0.006*[#  16]+0.006*[#  17]
          +0.006*[#  20]+0.006*[#  22]+0.006*[#  25]+0.006*[#  26]
    |psi|^2 = 1.000
==== e(  13) =    -3.01090 eV ==== 
     psi = 0.320*[#  12]+0.320*[#  13]+0.320*[#  14]+0.006*[#  16]+0.006*[#  17]
          +0.006*[#  20]+0.006*[#  22]+0.006*[#  25]+0.006*[#  26]
    |psi|^2 = 1.000
==== e(  14) =     1.47442 eV ==== 
     psi = 0.158*[#  16]+0.158*[#  17]+0.158*[#  20]+0.158*[#  22]+0.158*[#  25]
          +0.158*[#  26]+0.013*[#  12]+0.013*[#  13]+0.013*[#  14]
    |psi|^2 = 0.986
==== e(  15) =     1.47442 eV ==== 
     psi = 0.158*[#  16]+0.158*[#  17]+0.158*[#  20]+0.158*[#  22]+0.158*[#  25]
          +0.158*[#  26]+0.013*[#  12]+0.013*[#  13]+0.013*[#  14]
    |psi|^2 = 0.986
==== e(  16) =     1.47442 eV ==== 
     psi = 0.158*[#  16]+0.158*[#  17]+0.158*[#  20]+0.158*[#  22]+0.158*[#  25]
          +0.158*[#  26]+0.013*[#  12]+0.013*[#  13]+0.013*[#  14]
    |psi|^2 = 0.986
==== e(  17) =     1.54497 eV ==== 
     psi = 0.325*[#  18]+0.325*[#  21]+0.325*[#  24]+0.009*[#   5]+0.009*[#   8]
          
    |psi|^2 = 0.993
==== e(  18) =     1.54497 eV ==== 
     psi = 0.325*[#  18]+0.325*[#  21]+0.325*[#  24]+0.009*[#   5]+0.009*[#   8]
          
    |psi|^2 = 0.993
==== e(  19) =     1.88885 eV ==== 
     psi = 0.166*[#  16]+0.166*[#  17]+0.166*[#  20]+0.166*[#  22]+0.166*[#  25]
          +0.166*[#  26]
    |psi|^2 = 0.996
==== e(  20) =     1.88885 eV ==== 
     psi = 0.166*[#  16]+0.166*[#  17]+0.166*[#  20]+0.166*[#  22]+0.166*[#  25]
          +0.166*[#  26]
    |psi|^2 = 0.996
==== e(  21) =     1.88886 eV ==== 
     psi = 0.166*[#  16]+0.166*[#  17]+0.166*[#  20]+0.166*[#  22]+0.166*[#  25]
          +0.166*[#  26]
    |psi|^2 = 0.996
==== e(  22) =     4.79348 eV ==== 
     psi = 0.370*[#   1]+0.209*[#  18]+0.209*[#  21]+0.209*[#  24]
    |psi|^2 = 0.998
==== e(  23) =     7.76652 eV ==== 
     psi = 0.288*[#   2]+0.288*[#   3]+0.288*[#   4]+0.023*[#  15]+0.023*[#  19]
          +0.023*[#  23]
    |psi|^2 = 0.931
==== e(  24) =     7.76652 eV ==== 
     psi = 0.288*[#   2]+0.288*[#   3]+0.288*[#   4]+0.023*[#  15]+0.023*[#  19]
          +0.023*[#  23]
    |psi|^2 = 0.931
==== e(  25) =     7.76652 eV ==== 
     psi = 0.288*[#   2]+0.288*[#   3]+0.288*[#   4]+0.023*[#  15]+0.023*[#  19]
          +0.023*[#  23]
    |psi|^2 = 0.931
==== e(  26) =    12.94905 eV ==== 
     psi = 0.015*[#   2]+0.015*[#   3]+0.015*[#   4]+0.001*[#  15]+0.001*[#  19]
          +0.001*[#  23]
    |psi|^2 = 0.047
==== e(  27) =    12.94905 eV ==== 
     psi = 0.015*[#   2]+0.015*[#   3]+0.015*[#   4]+0.001*[#  15]+0.001*[#  19]
          +0.001*[#  23]
    |psi|^2 = 0.047
==== e(  28) =    12.94905 eV ==== 
     psi = 0.015*[#   2]+0.015*[#   3]+0.015*[#   4]+0.001*[#  15]+0.001*[#  19]
          +0.001*[#  23]
    |psi|^2 = 0.047
==== e(  29) =    13.30655 eV ==== 
     psi = 0.698*[#  11]+0.061*[#  10]
    |psi|^2 = 0.760
==== e(  30) =    13.35039 eV ==== 

    |psi|^2 = 0.000
==== e(  31) =    13.35039 eV ==== 

    |psi|^2 = 0.000
==== e(  32) =    13.66368 eV ==== 
     psi = 0.002*[#  16]+0.002*[#  17]+0.002*[#  20]+0.002*[#  22]+0.002*[#  25]
          +0.002*[#  26]
    |psi|^2 = 0.012
==== e(  33) =    13.66368 eV ==== 
     psi = 0.002*[#  16]+0.002*[#  17]+0.002*[#  20]+0.002*[#  22]+0.002*[#  25]
          +0.002*[#  26]
    |psi|^2 = 0.012
==== e(  34) =    13.66368 eV ==== 
     psi = 0.002*[#  16]+0.002*[#  17]+0.002*[#  20]+0.002*[#  22]+0.002*[#  25]
          +0.002*[#  26]
    |psi|^2 = 0.012
==== e(  35) =    17.33835 eV ==== 

    |psi|^2 = 0.000
==== e(  36) =    18.02568 eV ==== 

    |psi|^2 = 0.001
==== e(  37) =    18.02568 eV ==== 

    |psi|^2 = 0.001
==== e(  38) =    18.02569 eV ==== 

    |psi|^2 = 0.001
==== e(  39) =    19.06284 eV ==== 

    |psi|^2 = 0.002
==== e(  40) =    19.06284 eV ==== 

    |psi|^2 = 0.002

Lowdin Charges: 

     Atom #   1: total charge =  12.9172, s =  1.9031, 
     Atom #   1: total charge =  12.9172, p =  1.0160, pz=  0.3387, px=  0.3387, py=  0.3387, 
     Atom #   1: total charge =  12.9172, d =  9.9981, dz2=  1.9992, dxz=  1.9999, dyz=  1.9999, dx2-y2=  1.9992, dxy=  1.9999, 
     Atom #   2: total charge =   8.1264, s =  2.1771, 
     Atom #   2: total charge =   8.1264, p =  5.9494, pz=  1.9831, px=  1.9831, py=  1.9831, 
     Atom #   2: total charge =   8.1264, d =  0.0000, dz2=  0.0000, dxz=  0.0000, dyz=  0.0000, dx2-y2=  0.0000, dxy=  0.0000, 
     Atom #   3: total charge =   7.6028, s =  1.9219, 
     Atom #   3: total charge =   7.6028, p =  5.6809, pz=  1.9389, px=  1.9389, py=  1.8031, 
     Atom #   3: total charge =   7.6028, d =  0.0000, dz2=  0.0000, dxz=  0.0000, dyz=  0.0000, dx2-y2=  0.0000, dxy=  0.0000, 
     Atom #   4: total charge =   7.6028, s =  1.9219, 
     Atom #   4: total charge =   7.6028, p =  5.6809, pz=  1.9389, px=  1.8031, py=  1.9389, 
     Atom #   4: total charge =   7.6028, d =  0.0000, dz2=  0.0000, dxz=  0.0000, dyz=  0.0000, dx2-y2=  0.0000, dxy=  0.0000, 
     Atom #   5: total charge =   7.6028, s =  1.9219, 
     Atom #   5: total charge =   7.6028, p =  5.6809, pz=  1.8031, px=  1.9389, py=  1.9389, 
     Atom #   5: total charge =   7.6028, d =  0.0000, dz2=  0.0000, dxz=  0.0000, dyz=  0.0000, dx2-y2=  0.0000, dxy=  0.0000, 
     Spilling Parameter:   0.0034

     PROJWFC      :     17.09s CPU     17.99s WALL


   This run was terminated on:   3:29:12  18Jun2026            

=------------------------------------------------------------------------------=
   JOB DONE.
=------------------------------------------------------------------------------=
