
     Program PROJWFC v.7.2 starts on  1Jul2026 at 19:50:49 

     This program is part of the open-source Quantum ESPRESSO suite
     for quantum simulation of materials; please cite
         "P. Giannozzi et al., J. Phys.:Condens. Matter 21 395502 (2009);
         "P. Giannozzi et al., J. Phys.:Condens. Matter 29 465901 (2017);
         "P. Giannozzi et al., J. Chem. Phys. 152 154105 (2020);
          URL http://www.quantum-espresso.org", 
     in publications or presentations arising from this work. More details at
     http://www.quantum-espresso.org/quote

     Parallel version (MPI), running on     1 processors

     MPI processes distributed on     1 nodes
     123802 MiB available memory on the printing compute node when the environment starts


     Reading xml data from directory:

     ../../tmp/cspbf3_VF.save/
     file Cs.pbe-spn-kjpaw_psl.1.0.0.UPF: wavefunction(s)  5S 6S renormalized
     file Pb.pbe-dn-kjpaw_psl.1.0.0.UPF: wavefunction(s)  6S 6P 5D renormalized
     file F.pbe-n-kjpaw_psl.1.0.0.UPF: wavefunction(s)  2S 2P renormalized

     IMPORTANT: XC functional enforced from input :
     Exchange-correlation= PBE
                           (   1   4   3   4   0   0   0)
     Any further DFT definition will be discarded
     Please, verify this is what you really want


     G-vector sticks info
     --------------------
     sticks:   dense  smooth     PW     G-vecs:    dense   smooth      PW
     Sum       17521    8757   2337              1744101   616525   84823

     Using Slab Decomposition


     Gaussian broadening (read from input): ngauss,degauss=   0    0.030000


     Calling projwave .... 
     Subspace diagonalization in iterative solution of the eigenvalue problem:
     a serial algorithm will be used


  Problem Sizes 
  natomwfc =          204
  nbnd     =          208
  nkstot   =           18
  npwx     =        77208
  nkb      =          592


     Atomic states used for projection
     (read from pseudopotential files):

     state #   1: atom   1 (Pb ), wfc  1 (l=0 m= 1)
     state #   2: atom   1 (Pb ), wfc  2 (l=1 m= 1)
     state #   3: atom   1 (Pb ), wfc  2 (l=1 m= 2)
     state #   4: atom   1 (Pb ), wfc  2 (l=1 m= 3)
     state #   5: atom   1 (Pb ), wfc  3 (l=2 m= 1)
     state #   6: atom   1 (Pb ), wfc  3 (l=2 m= 2)
     state #   7: atom   1 (Pb ), wfc  3 (l=2 m= 3)
     state #   8: atom   1 (Pb ), wfc  3 (l=2 m= 4)
     state #   9: atom   1 (Pb ), wfc  3 (l=2 m= 5)
     state #  10: atom   2 (Pb ), wfc  1 (l=0 m= 1)
     state #  11: atom   2 (Pb ), wfc  2 (l=1 m= 1)
     state #  12: atom   2 (Pb ), wfc  2 (l=1 m= 2)
     state #  13: atom   2 (Pb ), wfc  2 (l=1 m= 3)
     state #  14: atom   2 (Pb ), wfc  3 (l=2 m= 1)
     state #  15: atom   2 (Pb ), wfc  3 (l=2 m= 2)
     state #  16: atom   2 (Pb ), wfc  3 (l=2 m= 3)
     state #  17: atom   2 (Pb ), wfc  3 (l=2 m= 4)
     state #  18: atom   2 (Pb ), wfc  3 (l=2 m= 5)
     state #  19: atom   3 (Pb ), wfc  1 (l=0 m= 1)
     state #  20: atom   3 (Pb ), wfc  2 (l=1 m= 1)
     state #  21: atom   3 (Pb ), wfc  2 (l=1 m= 2)
     state #  22: atom   3 (Pb ), wfc  2 (l=1 m= 3)
     state #  23: atom   3 (Pb ), wfc  3 (l=2 m= 1)
     state #  24: atom   3 (Pb ), wfc  3 (l=2 m= 2)
     state #  25: atom   3 (Pb ), wfc  3 (l=2 m= 3)
     state #  26: atom   3 (Pb ), wfc  3 (l=2 m= 4)
     state #  27: atom   3 (Pb ), wfc  3 (l=2 m= 5)
     state #  28: atom   4 (Pb ), wfc  1 (l=0 m= 1)
     state #  29: atom   4 (Pb ), wfc  2 (l=1 m= 1)
     state #  30: atom   4 (Pb ), wfc  2 (l=1 m= 2)
     state #  31: atom   4 (Pb ), wfc  2 (l=1 m= 3)
     state #  32: atom   4 (Pb ), wfc  3 (l=2 m= 1)
     state #  33: atom   4 (Pb ), wfc  3 (l=2 m= 2)
     state #  34: atom   4 (Pb ), wfc  3 (l=2 m= 3)
     state #  35: atom   4 (Pb ), wfc  3 (l=2 m= 4)
     state #  36: atom   4 (Pb ), wfc  3 (l=2 m= 5)
     state #  37: atom   5 (Pb ), wfc  1 (l=0 m= 1)
     state #  38: atom   5 (Pb ), wfc  2 (l=1 m= 1)
     state #  39: atom   5 (Pb ), wfc  2 (l=1 m= 2)
     state #  40: atom   5 (Pb ), wfc  2 (l=1 m= 3)
     state #  41: atom   5 (Pb ), wfc  3 (l=2 m= 1)
     state #  42: atom   5 (Pb ), wfc  3 (l=2 m= 2)
     state #  43: atom   5 (Pb ), wfc  3 (l=2 m= 3)
     state #  44: atom   5 (Pb ), wfc  3 (l=2 m= 4)
     state #  45: atom   5 (Pb ), wfc  3 (l=2 m= 5)
     state #  46: atom   6 (Pb ), wfc  1 (l=0 m= 1)
     state #  47: atom   6 (Pb ), wfc  2 (l=1 m= 1)
     state #  48: atom   6 (Pb ), wfc  2 (l=1 m= 2)
     state #  49: atom   6 (Pb ), wfc  2 (l=1 m= 3)
     state #  50: atom   6 (Pb ), wfc  3 (l=2 m= 1)
     state #  51: atom   6 (Pb ), wfc  3 (l=2 m= 2)
     state #  52: atom   6 (Pb ), wfc  3 (l=2 m= 3)
     state #  53: atom   6 (Pb ), wfc  3 (l=2 m= 4)
     state #  54: atom   6 (Pb ), wfc  3 (l=2 m= 5)
     state #  55: atom   7 (Pb ), wfc  1 (l=0 m= 1)
     state #  56: atom   7 (Pb ), wfc  2 (l=1 m= 1)
     state #  57: atom   7 (Pb ), wfc  2 (l=1 m= 2)
     state #  58: atom   7 (Pb ), wfc  2 (l=1 m= 3)
     state #  59: atom   7 (Pb ), wfc  3 (l=2 m= 1)
     state #  60: atom   7 (Pb ), wfc  3 (l=2 m= 2)
     state #  61: atom   7 (Pb ), wfc  3 (l=2 m= 3)
     state #  62: atom   7 (Pb ), wfc  3 (l=2 m= 4)
     state #  63: atom   7 (Pb ), wfc  3 (l=2 m= 5)
     state #  64: atom   8 (Pb ), wfc  1 (l=0 m= 1)
     state #  65: atom   8 (Pb ), wfc  2 (l=1 m= 1)
     state #  66: atom   8 (Pb ), wfc  2 (l=1 m= 2)
     state #  67: atom   8 (Pb ), wfc  2 (l=1 m= 3)
     state #  68: atom   8 (Pb ), wfc  3 (l=2 m= 1)
     state #  69: atom   8 (Pb ), wfc  3 (l=2 m= 2)
     state #  70: atom   8 (Pb ), wfc  3 (l=2 m= 3)
     state #  71: atom   8 (Pb ), wfc  3 (l=2 m= 4)
     state #  72: atom   8 (Pb ), wfc  3 (l=2 m= 5)
     state #  73: atom   9 (Cs ), wfc  1 (l=0 m= 1)
     state #  74: atom   9 (Cs ), wfc  2 (l=0 m= 1)
     state #  75: atom   9 (Cs ), wfc  3 (l=1 m= 1)
     state #  76: atom   9 (Cs ), wfc  3 (l=1 m= 2)
     state #  77: atom   9 (Cs ), wfc  3 (l=1 m= 3)
     state #  78: atom  10 (Cs ), wfc  1 (l=0 m= 1)
     state #  79: atom  10 (Cs ), wfc  2 (l=0 m= 1)
     state #  80: atom  10 (Cs ), wfc  3 (l=1 m= 1)
     state #  81: atom  10 (Cs ), wfc  3 (l=1 m= 2)
     state #  82: atom  10 (Cs ), wfc  3 (l=1 m= 3)
     state #  83: atom  11 (Cs ), wfc  1 (l=0 m= 1)
     state #  84: atom  11 (Cs ), wfc  2 (l=0 m= 1)
     state #  85: atom  11 (Cs ), wfc  3 (l=1 m= 1)
     state #  86: atom  11 (Cs ), wfc  3 (l=1 m= 2)
     state #  87: atom  11 (Cs ), wfc  3 (l=1 m= 3)
     state #  88: atom  12 (Cs ), wfc  1 (l=0 m= 1)
     state #  89: atom  12 (Cs ), wfc  2 (l=0 m= 1)
     state #  90: atom  12 (Cs ), wfc  3 (l=1 m= 1)
     state #  91: atom  12 (Cs ), wfc  3 (l=1 m= 2)
     state #  92: atom  12 (Cs ), wfc  3 (l=1 m= 3)
     state #  93: atom  13 (Cs ), wfc  1 (l=0 m= 1)
     state #  94: atom  13 (Cs ), wfc  2 (l=0 m= 1)
     state #  95: atom  13 (Cs ), wfc  3 (l=1 m= 1)
     state #  96: atom  13 (Cs ), wfc  3 (l=1 m= 2)
     state #  97: atom  13 (Cs ), wfc  3 (l=1 m= 3)
     state #  98: atom  14 (Cs ), wfc  1 (l=0 m= 1)
     state #  99: atom  14 (Cs ), wfc  2 (l=0 m= 1)
     state # 100: atom  14 (Cs ), wfc  3 (l=1 m= 1)
     state # 101: atom  14 (Cs ), wfc  3 (l=1 m= 2)
     state # 102: atom  14 (Cs ), wfc  3 (l=1 m= 3)
     state # 103: atom  15 (Cs ), wfc  1 (l=0 m= 1)
     state # 104: atom  15 (Cs ), wfc  2 (l=0 m= 1)
     state # 105: atom  15 (Cs ), wfc  3 (l=1 m= 1)
     state # 106: atom  15 (Cs ), wfc  3 (l=1 m= 2)
     state # 107: atom  15 (Cs ), wfc  3 (l=1 m= 3)
     state # 108: atom  16 (Cs ), wfc  1 (l=0 m= 1)
     state # 109: atom  16 (Cs ), wfc  2 (l=0 m= 1)
     state # 110: atom  16 (Cs ), wfc  3 (l=1 m= 1)
     state # 111: atom  16 (Cs ), wfc  3 (l=1 m= 2)
     state # 112: atom  16 (Cs ), wfc  3 (l=1 m= 3)
     state # 113: atom  17 (F  ), wfc  1 (l=0 m= 1)
     state # 114: atom  17 (F  ), wfc  2 (l=1 m= 1)
     state # 115: atom  17 (F  ), wfc  2 (l=1 m= 2)
     state # 116: atom  17 (F  ), wfc  2 (l=1 m= 3)
     state # 117: atom  18 (F  ), wfc  1 (l=0 m= 1)
     state # 118: atom  18 (F  ), wfc  2 (l=1 m= 1)
     state # 119: atom  18 (F  ), wfc  2 (l=1 m= 2)
     state # 120: atom  18 (F  ), wfc  2 (l=1 m= 3)
     state # 121: atom  19 (F  ), wfc  1 (l=0 m= 1)
     state # 122: atom  19 (F  ), wfc  2 (l=1 m= 1)
     state # 123: atom  19 (F  ), wfc  2 (l=1 m= 2)
     state # 124: atom  19 (F  ), wfc  2 (l=1 m= 3)
     state # 125: atom  20 (F  ), wfc  1 (l=0 m= 1)
     state # 126: atom  20 (F  ), wfc  2 (l=1 m= 1)
     state # 127: atom  20 (F  ), wfc  2 (l=1 m= 2)
     state # 128: atom  20 (F  ), wfc  2 (l=1 m= 3)
     state # 129: atom  21 (F  ), wfc  1 (l=0 m= 1)
     state # 130: atom  21 (F  ), wfc  2 (l=1 m= 1)
     state # 131: atom  21 (F  ), wfc  2 (l=1 m= 2)
     state # 132: atom  21 (F  ), wfc  2 (l=1 m= 3)
     state # 133: atom  22 (F  ), wfc  1 (l=0 m= 1)
     state # 134: atom  22 (F  ), wfc  2 (l=1 m= 1)
     state # 135: atom  22 (F  ), wfc  2 (l=1 m= 2)
     state # 136: atom  22 (F  ), wfc  2 (l=1 m= 3)
     state # 137: atom  23 (F  ), wfc  1 (l=0 m= 1)
     state # 138: atom  23 (F  ), wfc  2 (l=1 m= 1)
     state # 139: atom  23 (F  ), wfc  2 (l=1 m= 2)
     state # 140: atom  23 (F  ), wfc  2 (l=1 m= 3)
     state # 141: atom  24 (F  ), wfc  1 (l=0 m= 1)
     state # 142: atom  24 (F  ), wfc  2 (l=1 m= 1)
     state # 143: atom  24 (F  ), wfc  2 (l=1 m= 2)
     state # 144: atom  24 (F  ), wfc  2 (l=1 m= 3)
     state # 145: atom  25 (F  ), wfc  1 (l=0 m= 1)
     state # 146: atom  25 (F  ), wfc  2 (l=1 m= 1)
     state # 147: atom  25 (F  ), wfc  2 (l=1 m= 2)
     state # 148: atom  25 (F  ), wfc  2 (l=1 m= 3)
     state # 149: atom  26 (F  ), wfc  1 (l=0 m= 1)
     state # 150: atom  26 (F  ), wfc  2 (l=1 m= 1)
     state # 151: atom  26 (F  ), wfc  2 (l=1 m= 2)
     state # 152: atom  26 (F  ), wfc  2 (l=1 m= 3)
     state # 153: atom  27 (F  ), wfc  1 (l=0 m= 1)
     state # 154: atom  27 (F  ), wfc  2 (l=1 m= 1)
     state # 155: atom  27 (F  ), wfc  2 (l=1 m= 2)
     state # 156: atom  27 (F  ), wfc  2 (l=1 m= 3)
     state # 157: atom  28 (F  ), wfc  1 (l=0 m= 1)
     state # 158: atom  28 (F  ), wfc  2 (l=1 m= 1)
     state # 159: atom  28 (F  ), wfc  2 (l=1 m= 2)
     state # 160: atom  28 (F  ), wfc  2 (l=1 m= 3)
     state # 161: atom  29 (F  ), wfc  1 (l=0 m= 1)
     state # 162: atom  29 (F  ), wfc  2 (l=1 m= 1)
     state # 163: atom  29 (F  ), wfc  2 (l=1 m= 2)
     state # 164: atom  29 (F  ), wfc  2 (l=1 m= 3)
     state # 165: atom  30 (F  ), wfc  1 (l=0 m= 1)
     state # 166: atom  30 (F  ), wfc  2 (l=1 m= 1)
     state # 167: atom  30 (F  ), wfc  2 (l=1 m= 2)
     state # 168: atom  30 (F  ), wfc  2 (l=1 m= 3)
     state # 169: atom  31 (F  ), wfc  1 (l=0 m= 1)
     state # 170: atom  31 (F  ), wfc  2 (l=1 m= 1)
     state # 171: atom  31 (F  ), wfc  2 (l=1 m= 2)
     state # 172: atom  31 (F  ), wfc  2 (l=1 m= 3)
     state # 173: atom  32 (F  ), wfc  1 (l=0 m= 1)
     state # 174: atom  32 (F  ), wfc  2 (l=1 m= 1)
     state # 175: atom  32 (F  ), wfc  2 (l=1 m= 2)
     state # 176: atom  32 (F  ), wfc  2 (l=1 m= 3)
     state # 177: atom  33 (F  ), wfc  1 (l=0 m= 1)
     state # 178: atom  33 (F  ), wfc  2 (l=1 m= 1)
     state # 179: atom  33 (F  ), wfc  2 (l=1 m= 2)
     state # 180: atom  33 (F  ), wfc  2 (l=1 m= 3)
     state # 181: atom  34 (F  ), wfc  1 (l=0 m= 1)
     state # 182: atom  34 (F  ), wfc  2 (l=1 m= 1)
     state # 183: atom  34 (F  ), wfc  2 (l=1 m= 2)
     state # 184: atom  34 (F  ), wfc  2 (l=1 m= 3)
     state # 185: atom  35 (F  ), wfc  1 (l=0 m= 1)
     state # 186: atom  35 (F  ), wfc  2 (l=1 m= 1)
     state # 187: atom  35 (F  ), wfc  2 (l=1 m= 2)
     state # 188: atom  35 (F  ), wfc  2 (l=1 m= 3)
     state # 189: atom  36 (F  ), wfc  1 (l=0 m= 1)
     state # 190: atom  36 (F  ), wfc  2 (l=1 m= 1)
     state # 191: atom  36 (F  ), wfc  2 (l=1 m= 2)
     state # 192: atom  36 (F  ), wfc  2 (l=1 m= 3)
     state # 193: atom  37 (F  ), wfc  1 (l=0 m= 1)
     state # 194: atom  37 (F  ), wfc  2 (l=1 m= 1)
     state # 195: atom  37 (F  ), wfc  2 (l=1 m= 2)
     state # 196: atom  37 (F  ), wfc  2 (l=1 m= 3)
     state # 197: atom  38 (F  ), wfc  1 (l=0 m= 1)
     state # 198: atom  38 (F  ), wfc  2 (l=1 m= 1)
     state # 199: atom  38 (F  ), wfc  2 (l=1 m= 2)
     state # 200: atom  38 (F  ), wfc  2 (l=1 m= 3)
     state # 201: atom  39 (F  ), wfc  1 (l=0 m= 1)
     state # 202: atom  39 (F  ), wfc  2 (l=1 m= 1)
     state # 203: atom  39 (F  ), wfc  2 (l=1 m= 2)
     state # 204: atom  39 (F  ), wfc  2 (l=1 m= 3)

 k =   0.0000000000  0.0000000000  0.0000000000
==== e(   1) =   -17.31525 eV ==== 
     psi = 0.257*[# 157]+0.045*[# 145]+0.043*[# 113]+0.043*[# 121]+0.043*[# 129]
          +0.043*[# 137]+0.043*[# 173]+0.043*[# 177]+0.043*[# 189]+0.043*[# 193]
          +0.037*[# 149]+0.037*[# 153]+0.018*[# 161]+0.018*[# 165]+0.014*[# 117]
          +0.014*[# 125]+0.014*[# 133]+0.014*[# 141]+0.014*[# 181]+0.014*[# 185]
          +0.014*[# 197]+0.014*[# 201]+0.012*[#  94]+0.012*[#  99]+0.012*[# 104]
          +0.012*[# 109]+0.011*[#  74]+0.011*[#  79]+0.011*[#  84]+0.011*[#  89]
          +0.007*[#   1]+0.007*[#  37]+0.002*[#  73]+0.002*[#  78]+0.002*[#  83]
          +0.002*[#  88]+0.002*[# 169]+0.002*[#  10]+0.002*[#  19]+0.002*[#  46]
          +0.002*[#  55]+0.002*[#  93]+0.002*[#  98]+0.002*[# 103]+0.002*[# 108]
          +0.002*[#   3]+0.002*[#  39]
    |psi|^2 = 1.000
==== e(   2) =   -17.25866 eV ==== 
     psi = 0.536*[# 157]+0.061*[# 149]+0.061*[# 153]+0.024*[# 117]+0.024*[# 125]
          +0.024*[# 133]+0.024*[# 141]+0.024*[# 181]+0.024*[# 185]+0.024*[# 197]
          +0.024*[# 201]+0.022*[# 161]+0.022*[# 165]+0.017*[# 145]+0.008*[#   3]
          +0.008*[#  39]+0.004*[# 169]+0.003*[#   8]+0.003*[#  44]+0.003*[#  74]
          +0.003*[#  79]+0.003*[#  84]+0.003*[#  89]+0.003*[#   1]+0.003*[#  37]
          +0.002*[# 113]+0.002*[# 121]+0.002*[# 129]+0.002*[# 137]+0.002*[# 173]
          +0.002*[# 177]+0.002*[# 189]+0.002*[# 193]+0.002*[#  10]+0.002*[#  19]
          +0.002*[#  46]+0.002*[#  55]+0.001*[#  28]+0.001*[#  64]+0.001*[#   5]
          +0.001*[#  41]
    |psi|^2 = 0.999
==== e(   3) =   -17.24305 eV ==== 
     psi = 0.200*[# 149]+0.200*[# 153]+0.069*[# 161]+0.069*[# 165]+0.032*[# 113]
          +0.032*[# 121]+0.032*[# 129]+0.032*[# 137]+0.032*[# 173]+0.032*[# 177]
          +0.032*[# 189]+0.032*[# 193]+0.020*[# 117]+0.020*[# 125]+0.020*[# 133]
          +0.020*[# 141]+0.020*[# 181]+0.020*[# 185]+0.020*[# 197]+0.020*[# 201]
          +0.008*[#  10]+0.008*[#  19]+0.008*[#  46]+0.008*[#  55]+0.001*[#   5]
          +0.001*[#  41]
    |psi|^2 = 0.999
==== e(   4) =   -17.24021 eV ==== 
     psi = 0.086*[# 113]+0.086*[# 121]+0.086*[# 129]+0.086*[# 137]+0.086*[# 173]
          +0.086*[# 177]+0.086*[# 189]+0.086*[# 193]+0.034*[# 117]+0.034*[# 125]
          +0.034*[# 133]+0.034*[# 141]+0.034*[# 181]+0.034*[# 185]+0.034*[# 197]
          +0.034*[# 201]+0.006*[#   1]+0.006*[#  37]+0.004*[#  10]+0.004*[#  19]
          +0.004*[#  46]+0.004*[#  55]+0.002*[#  28]+0.002*[#  64]+0.001*[#   8]
          +0.001*[#  26]+0.001*[#  44]+0.001*[#  62]
    |psi|^2 = 0.999
==== e(   5) =   -17.19745 eV ==== 
     psi = 0.093*[# 157]+0.054*[# 117]+0.054*[# 125]+0.054*[# 133]+0.054*[# 141]
          +0.054*[# 181]+0.054*[# 185]+0.054*[# 197]+0.054*[# 201]+0.050*[# 113]
          +0.050*[# 121]+0.050*[# 129]+0.050*[# 137]+0.050*[# 173]+0.050*[# 177]
          +0.050*[# 189]+0.050*[# 193]+0.015*[# 169]+0.011*[# 145]+0.004*[#  28]
          +0.004*[#  64]+0.004*[#   3]+0.004*[#  39]+0.002*[#   1]+0.002*[#  37]
          +0.002*[#  14]+0.002*[#  23]+0.002*[#  50]+0.002*[#  59]+0.002*[#   8]
          +0.002*[#  44]+0.002*[# 161]+0.002*[# 165]
    |psi|^2 = 0.999
==== e(   6) =   -17.19729 eV ==== 
     psi = 0.087*[# 113]+0.087*[# 121]+0.087*[# 129]+0.087*[# 137]+0.087*[# 173]
          +0.087*[# 177]+0.087*[# 189]+0.087*[# 193]+0.034*[# 117]+0.034*[# 125]
          +0.034*[# 133]+0.034*[# 141]+0.034*[# 181]+0.034*[# 185]+0.034*[# 197]
          +0.034*[# 201]+0.004*[#  10]+0.004*[#  19]+0.004*[#  46]+0.004*[#  55]
          +0.003*[#   5]+0.003*[#  41]+0.001*[#  32]+0.001*[#  68]+0.001*[#   8]
          +0.001*[#  26]+0.001*[#  44]+0.001*[#  62]
    |psi|^2 = 0.999
==== e(   7) =   -17.19326 eV ==== 
     psi = 0.086*[# 117]+0.086*[# 125]+0.086*[# 133]+0.086*[# 141]+0.086*[# 181]
          +0.086*[# 185]+0.086*[# 197]+0.086*[# 201]+0.034*[# 113]+0.034*[# 121]
          +0.034*[# 129]+0.034*[# 137]+0.034*[# 173]+0.034*[# 177]+0.034*[# 189]
          +0.034*[# 193]+0.006*[#  28]+0.006*[#  64]+0.003*[#  23]+0.003*[#  59]
          +0.002*[#   1]+0.002*[#  37]+0.002*[#  14]+0.002*[#  50]+0.001*[#  17]
          +0.001*[#  35]+0.001*[#  53]+0.001*[#  71]
    |psi|^2 = 0.999
==== e(   8) =   -17.18383 eV ==== 
     psi = 0.309*[# 149]+0.309*[# 153]+0.030*[# 161]+0.030*[# 165]+0.025*[# 157]
          +0.017*[# 117]+0.017*[# 125]+0.017*[# 133]+0.017*[# 141]+0.017*[# 181]
          +0.017*[# 185]+0.017*[# 197]+0.017*[# 201]+0.014*[# 113]+0.014*[# 121]
          +0.014*[# 129]+0.014*[# 137]+0.014*[# 173]+0.014*[# 177]+0.014*[# 189]
          +0.014*[# 193]+0.006*[# 169]+0.003*[#  17]+0.003*[#  53]+0.003*[#  26]
          +0.003*[#  62]+0.003*[#  12]+0.003*[#  21]+0.003*[#  48]+0.003*[#  57]
          +0.002*[# 145]+0.001*[#  28]+0.001*[#  64]+0.001*[#   3]+0.001*[#  23]
          +0.001*[#  59]
    |psi|^2 = 0.999
==== e(   9) =   -17.16850 eV ==== 
     psi = 0.179*[# 149]+0.179*[# 153]+0.072*[# 113]+0.072*[# 121]+0.072*[# 129]
          +0.072*[# 137]+0.072*[# 173]+0.072*[# 177]+0.072*[# 189]+0.072*[# 193]
          +0.010*[# 161]+0.010*[# 165]+0.004*[#  26]+0.004*[#  62]+0.003*[#   5]
          +0.003*[#  41]+0.002*[#  14]+0.002*[#  50]+0.002*[#  12]+0.002*[#  21]
          +0.002*[#  48]+0.002*[#  57]+0.002*[# 117]+0.002*[# 125]+0.002*[# 133]
          +0.002*[# 141]+0.002*[# 181]+0.002*[# 185]+0.002*[# 197]+0.002*[# 201]
          +0.001*[#  17]+0.001*[#  53]
    |psi|^2 = 0.999
==== e(  10) =   -17.15343 eV ==== 
     psi = 0.087*[# 117]+0.087*[# 125]+0.087*[# 133]+0.087*[# 141]+0.087*[# 181]
          +0.087*[# 185]+0.087*[# 197]+0.087*[# 201]+0.034*[# 113]+0.034*[# 121]
          +0.034*[# 129]+0.034*[# 137]+0.034*[# 173]+0.034*[# 177]+0.034*[# 189]
          +0.034*[# 193]+0.003*[#  32]+0.003*[#  68]+0.003*[#  23]+0.003*[#  59]
          +0.002*[#  14]+0.002*[#  50]+0.001*[#   5]+0.001*[#  41]+0.001*[#  17]
          +0.001*[#  35]+0.001*[#  53]+0.001*[#  71]
    |psi|^2 = 0.999
==== e(  11) =   -17.15306 eV ==== 
     psi = 0.095*[# 117]+0.095*[# 125]+0.095*[# 133]+0.095*[# 141]+0.095*[# 181]
          +0.095*[# 185]+0.095*[# 197]+0.095*[# 201]+0.040*[# 149]+0.040*[# 153]
          +0.016*[# 113]+0.016*[# 121]+0.016*[# 129]+0.016*[# 137]+0.016*[# 173]
          +0.016*[# 177]+0.016*[# 189]+0.016*[# 193]+0.004*[#  32]+0.004*[#  68]
          +0.003*[#  23]+0.003*[#  59]+0.002*[#  17]+0.002*[#  53]+0.001*[#  35]
          +0.001*[#  71]+0.001*[#  12]+0.001*[#  14]+0.001*[#  21]+0.001*[#  48]
          +0.001*[#  50]+0.001*[#  57]
    |psi|^2 = 0.999
==== e(  12) =   -17.14097 eV ==== 
     psi = 0.105*[# 113]+0.105*[# 121]+0.105*[# 129]+0.105*[# 137]+0.105*[# 173]
          +0.105*[# 177]+0.105*[# 189]+0.105*[# 193]+0.008*[#   2]+0.008*[#   4]
          +0.008*[#  38]+0.008*[#  40]+0.008*[#  11]+0.008*[#  22]+0.008*[#  47]
          +0.008*[#  58]+0.008*[# 117]+0.008*[# 125]+0.008*[# 133]+0.008*[# 141]
          +0.008*[# 181]+0.008*[# 185]+0.008*[# 197]+0.008*[# 201]+0.003*[#  74]
          +0.003*[#  79]+0.003*[#  84]+0.003*[#  89]+0.003*[#  94]+0.003*[#  99]
          +0.003*[# 104]+0.003*[# 109]+0.001*[#  73]+0.001*[#  78]+0.001*[#  83]
          +0.001*[#  88]
    |psi|^2 = 0.999
==== e(  13) =   -17.14097 eV ==== 
     psi = 0.105*[# 113]+0.105*[# 121]+0.105*[# 129]+0.105*[# 137]+0.105*[# 173]
          +0.105*[# 177]+0.105*[# 189]+0.105*[# 193]+0.008*[#   2]+0.008*[#   4]
          +0.008*[#  38]+0.008*[#  40]+0.008*[#  11]+0.008*[#  22]+0.008*[#  47]
          +0.008*[#  58]+0.008*[# 117]+0.008*[# 125]+0.008*[# 133]+0.008*[# 141]
          +0.008*[# 181]+0.008*[# 185]+0.008*[# 197]+0.008*[# 201]+0.003*[#  74]
          +0.003*[#  79]+0.003*[#  84]+0.003*[#  89]+0.003*[#  94]+0.003*[#  99]
          +0.003*[# 104]+0.003*[# 109]+0.001*[#  73]+0.001*[#  78]+0.001*[#  83]
          +0.001*[#  88]
    |psi|^2 = 0.999
==== e(  14) =   -17.13162 eV ==== 
     psi = 0.115*[# 113]+0.115*[# 121]+0.115*[# 129]+0.115*[# 137]+0.115*[# 173]
          +0.115*[# 177]+0.115*[# 189]+0.115*[# 193]+0.009*[#   2]+0.009*[#   4]
          +0.009*[#  38]+0.009*[#  40]+0.009*[#  11]+0.009*[#  22]+0.009*[#  47]
          +0.009*[#  58]
    |psi|^2 = 1.000
==== e(  15) =   -17.13162 eV ==== 
     psi = 0.115*[# 113]+0.115*[# 121]+0.115*[# 129]+0.115*[# 137]+0.115*[# 173]
          +0.115*[# 177]+0.115*[# 189]+0.115*[# 193]+0.009*[#   2]+0.009*[#   4]
          +0.009*[#  38]+0.009*[#  40]+0.009*[#  11]+0.009*[#  22]+0.009*[#  47]
          +0.009*[#  58]
    |psi|^2 = 1.000
==== e(  16) =   -17.11705 eV ==== 
     psi = 0.106*[# 117]+0.106*[# 125]+0.106*[# 133]+0.106*[# 141]+0.106*[# 181]
          +0.106*[# 185]+0.106*[# 197]+0.106*[# 201]+0.009*[# 113]+0.009*[# 121]
          +0.009*[# 129]+0.009*[# 137]+0.009*[# 173]+0.009*[# 177]+0.009*[# 189]
          +0.009*[# 193]+0.008*[#  13]+0.008*[#  20]+0.008*[#  49]+0.008*[#  56]
          +0.008*[#  29]+0.008*[#  31]+0.008*[#  65]+0.008*[#  67]
    |psi|^2 = 0.999
==== e(  17) =   -17.11705 eV ==== 
     psi = 0.106*[# 117]+0.106*[# 125]+0.106*[# 133]+0.106*[# 141]+0.106*[# 181]
          +0.106*[# 185]+0.106*[# 197]+0.106*[# 201]+0.009*[# 113]+0.009*[# 121]
          +0.009*[# 129]+0.009*[# 137]+0.009*[# 173]+0.009*[# 177]+0.009*[# 189]
          +0.009*[# 193]+0.008*[#  13]+0.008*[#  20]+0.008*[#  49]+0.008*[#  56]
          +0.008*[#  29]+0.008*[#  31]+0.008*[#  65]+0.008*[#  67]
    |psi|^2 = 0.999
==== e(  18) =   -17.11560 eV ==== 
     psi = 0.371*[# 161]+0.371*[# 165]+0.054*[# 149]+0.054*[# 153]+0.047*[# 145]
          +0.013*[#  12]+0.013*[#  21]+0.013*[#  48]+0.013*[#  57]+0.003*[# 117]
          +0.003*[# 125]+0.003*[# 133]+0.003*[# 141]+0.003*[# 181]+0.003*[# 185]
          +0.003*[# 197]+0.003*[# 201]+0.002*[#  94]+0.002*[#  99]+0.002*[# 104]
          +0.002*[# 109]+0.002*[#  74]+0.002*[#  79]+0.002*[#  84]+0.002*[#  89]
          
    |psi|^2 = 0.999
==== e(  19) =   -17.11177 eV ==== 
     psi = 0.115*[# 117]+0.115*[# 125]+0.115*[# 133]+0.115*[# 141]+0.115*[# 181]
          +0.115*[# 185]+0.115*[# 197]+0.115*[# 201]+0.009*[#  13]+0.009*[#  20]
          +0.009*[#  49]+0.009*[#  56]+0.009*[#  29]+0.009*[#  31]+0.009*[#  65]
          +0.009*[#  67]
    |psi|^2 = 1.000
==== e(  20) =   -17.11177 eV ==== 
     psi = 0.115*[# 117]+0.115*[# 125]+0.115*[# 133]+0.115*[# 141]+0.115*[# 181]
          +0.115*[# 185]+0.115*[# 197]+0.115*[# 201]+0.009*[#  13]+0.009*[#  20]
          +0.009*[#  49]+0.009*[#  56]+0.009*[#  29]+0.009*[#  31]+0.009*[#  65]
          +0.009*[#  67]
    |psi|^2 = 1.000
==== e(  21) =   -17.10874 eV ==== 
     psi = 0.393*[# 161]+0.393*[# 165]+0.054*[# 149]+0.054*[# 153]+0.015*[#  12]
          +0.015*[#  21]+0.015*[#  48]+0.015*[#  57]+0.004*[# 117]+0.004*[# 125]
          +0.004*[# 133]+0.004*[# 141]+0.004*[# 181]+0.004*[# 185]+0.004*[# 197]
          +0.004*[# 201]
    |psi|^2 = 0.999
==== e(  22) =   -17.09247 eV ==== 
     psi = 0.814*[# 145]+0.023*[# 157]+0.022*[# 161]+0.022*[# 165]+0.021*[#   3]
          +0.021*[#  39]+0.007*[# 113]+0.007*[# 121]+0.007*[# 129]+0.007*[# 137]
          +0.007*[# 173]+0.007*[# 177]+0.007*[# 189]+0.007*[# 193]+0.002*[#   8]
          +0.002*[#  44]+0.002*[# 149]+0.002*[# 153]
    |psi|^2 = 0.999
==== e(  23) =   -17.01766 eV ==== 
     psi = 0.914*[# 169]+0.015*[#  30]+0.015*[#  66]+0.004*[# 117]+0.004*[# 125]
          +0.004*[# 133]+0.004*[# 141]+0.004*[# 181]+0.004*[# 185]+0.004*[# 197]
          +0.004*[# 201]+0.003*[#  35]+0.003*[#  71]+0.002*[#  28]+0.002*[#  64]
          +0.001*[#  32]+0.001*[#  68]+0.001*[#  94]+0.001*[#  99]+0.001*[# 104]
          +0.001*[# 109]
    |psi|^2 = 0.999
==== e(  24) =   -16.12579 eV ==== 
     psi = 0.244*[#  73]+0.244*[#  78]+0.244*[#  83]+0.244*[#  88]
    |psi|^2 = 1.000
==== e(  25) =   -16.12579 eV ==== 
     psi = 0.244*[#  73]+0.244*[#  78]+0.244*[#  83]+0.244*[#  88]
    |psi|^2 = 1.000
==== e(  26) =   -16.12502 eV ==== 
     psi = 0.238*[#  73]+0.238*[#  78]+0.238*[#  83]+0.238*[#  88]+0.008*[#  74]
          +0.008*[#  79]+0.008*[#  84]+0.008*[#  89]+0.002*[#  93]+0.002*[#  98]
          +0.002*[# 103]+0.002*[# 108]+0.002*[#  94]+0.002*[#  99]+0.002*[# 104]
          +0.002*[# 109]
    |psi|^2 = 1.000
==== e(  27) =   -16.11544 eV ==== 
     psi = 0.237*[#  73]+0.237*[#  78]+0.237*[#  83]+0.237*[#  88]+0.006*[# 145]
          +0.004*[#  93]+0.004*[#  98]+0.004*[# 103]+0.004*[# 108]+0.003*[# 149]
          +0.003*[# 153]+0.002*[#  30]+0.002*[#  66]+0.001*[#   3]+0.001*[#  12]
          +0.001*[#  21]+0.001*[#  39]+0.001*[#  48]+0.001*[#  57]
    |psi|^2 = 1.000
==== e(  28) =   -16.06246 eV ==== 
     psi = 0.244*[#  93]+0.244*[#  98]+0.244*[# 103]+0.244*[# 108]
    |psi|^2 = 1.000
==== e(  29) =   -16.06246 eV ==== 
     psi = 0.244*[#  93]+0.244*[#  98]+0.244*[# 103]+0.244*[# 108]
    |psi|^2 = 1.000
==== e(  30) =   -16.06071 eV ==== 
     psi = 0.237*[#  93]+0.237*[#  98]+0.237*[# 103]+0.237*[# 108]+0.009*[#  94]
          +0.009*[#  99]+0.009*[# 104]+0.009*[# 109]+0.003*[#  74]+0.003*[#  79]
          +0.003*[#  84]+0.003*[#  89]
    |psi|^2 = 1.000
==== e(  31) =   -16.04915 eV ==== 
     psi = 0.237*[#  93]+0.237*[#  98]+0.237*[# 103]+0.237*[# 108]+0.005*[# 169]
          +0.004*[#  73]+0.004*[#  78]+0.004*[#  83]+0.004*[#  88]+0.003*[# 161]
          +0.003*[# 165]+0.002*[# 157]
    |psi|^2 = 1.000
==== e(  32) =   -11.16076 eV ==== 
     psi = 0.177*[#  26]+0.177*[#  62]+0.106*[#  14]+0.106*[#  50]+0.090*[#   5]
          +0.090*[#  41]+0.077*[#  17]+0.077*[#  53]+0.030*[#   8]+0.030*[#  44]
          +0.006*[#  23]+0.006*[#  59]+0.004*[#  32]+0.004*[#  68]+0.002*[# 151]
          +0.002*[# 155]+0.002*[# 163]+0.002*[# 167]+0.001*[#  35]+0.001*[#  71]
          +0.001*[# 116]+0.001*[# 124]+0.001*[# 132]+0.001*[# 140]+0.001*[# 174]
          +0.001*[# 178]+0.001*[# 190]+0.001*[# 194]
    |psi|^2 = 1.000
==== e(  33) =   -11.15795 eV ==== 
     psi = 0.190*[#   8]+0.190*[#  44]+0.118*[#  26]+0.118*[#  62]+0.082*[#  14]
          +0.082*[#  50]+0.063*[#   5]+0.063*[#  41]+0.036*[#  17]+0.036*[#  53]
          +0.003*[# 159]+0.003*[# 147]+0.001*[# 151]+0.001*[# 155]+0.001*[# 163]
          +0.001*[# 167]
    |psi|^2 = 1.000
==== e(  34) =   -11.15550 eV ==== 
     psi = 0.101*[#  14]+0.101*[#  50]+0.096*[#  23]+0.096*[#  59]+0.093*[#   5]
          +0.093*[#  41]+0.078*[#  32]+0.078*[#  68]+0.036*[#  26]+0.036*[#  62]
          +0.031*[#   8]+0.031*[#  44]+0.030*[#  17]+0.030*[#  53]+0.026*[#  35]
          +0.026*[#  71]+0.001*[# 116]+0.001*[# 124]+0.001*[# 132]+0.001*[# 140]
          +0.001*[# 174]+0.001*[# 178]+0.001*[# 190]+0.001*[# 194]+0.001*[# 120]
          +0.001*[# 128]+0.001*[# 136]+0.001*[# 144]+0.001*[# 182]+0.001*[# 186]
          +0.001*[# 198]+0.001*[# 202]
    |psi|^2 = 1.000
==== e(  35) =   -11.15424 eV ==== 
     psi = 0.142*[#  23]+0.142*[#  59]+0.117*[#  32]+0.117*[#  68]+0.102*[#  17]
          +0.102*[#  53]+0.040*[#  14]+0.040*[#  50]+0.039*[#  35]+0.039*[#  71]
          +0.038*[#   5]+0.038*[#  41]+0.013*[#   8]+0.013*[#  44]+0.002*[# 120]
          +0.002*[# 128]+0.002*[# 136]+0.002*[# 144]+0.002*[# 182]+0.002*[# 186]
          +0.002*[# 198]+0.002*[# 202]
    |psi|^2 = 1.000
==== e(  36) =   -11.12506 eV ==== 
     psi = 0.158*[#  17]+0.158*[#  53]+0.134*[#  23]+0.134*[#  59]+0.078*[#  35]
          +0.078*[#  71]+0.050*[#   8]+0.050*[#  44]+0.026*[#  32]+0.026*[#  68]
          +0.026*[#  26]+0.026*[#  62]+0.017*[#   5]+0.017*[#  41]+0.002*[#  14]
          +0.002*[#  50]+0.001*[# 151]+0.001*[# 155]+0.001*[# 163]+0.001*[# 167]
          
    |psi|^2 = 1.000
==== e(  37) =   -11.11256 eV ==== 
     psi = 0.231*[#  15]+0.231*[#  27]+0.231*[#  51]+0.231*[#  63]+0.010*[#  18]
          +0.010*[#  24]+0.010*[#  54]+0.010*[#  60]+0.009*[#   6]+0.009*[#   9]
          +0.009*[#  42]+0.009*[#  45]
    |psi|^2 = 1.000
==== e(  38) =   -11.11256 eV ==== 
     psi = 0.231*[#  15]+0.231*[#  27]+0.231*[#  51]+0.231*[#  63]+0.010*[#  18]
          +0.010*[#  24]+0.010*[#  54]+0.010*[#  60]+0.009*[#   6]+0.009*[#   9]
          +0.009*[#  42]+0.009*[#  45]
    |psi|^2 = 1.000
==== e(  39) =   -11.11105 eV ==== 
     psi = 0.227*[#  16]+0.227*[#  25]+0.227*[#  52]+0.227*[#  61]+0.032*[#   7]
          +0.032*[#  43]+0.012*[#  34]+0.012*[#  70]
    |psi|^2 = 1.000
==== e(  40) =   -11.11007 eV ==== 
     psi = 0.231*[#  16]+0.231*[#  25]+0.231*[#  52]+0.231*[#  61]+0.026*[#   7]
          +0.026*[#  43]+0.010*[#  34]+0.010*[#  70]
    |psi|^2 = 1.000
==== e(  41) =   -11.10999 eV ==== 
     psi = 0.239*[#  18]+0.239*[#  24]+0.239*[#  54]+0.239*[#  60]+0.010*[#  15]
          +0.010*[#  27]+0.010*[#  51]+0.010*[#  63]
    |psi|^2 = 1.000
==== e(  42) =   -11.10999 eV ==== 
     psi = 0.239*[#  18]+0.239*[#  24]+0.239*[#  54]+0.239*[#  60]+0.010*[#  15]
          +0.010*[#  27]+0.010*[#  51]+0.010*[#  63]
    |psi|^2 = 1.000
==== e(  43) =   -11.10905 eV ==== 
     psi = 0.250*[#  16]+0.250*[#  25]+0.250*[#  52]+0.250*[#  61]
    |psi|^2 = 1.000
==== e(  44) =   -11.10862 eV ==== 
     psi = 0.250*[#  16]+0.250*[#  25]+0.250*[#  52]+0.250*[#  61]
    |psi|^2 = 1.000
==== e(  45) =   -11.10622 eV ==== 
     psi = 0.240*[#  15]+0.240*[#  27]+0.240*[#  51]+0.240*[#  63]+0.010*[#   6]
          +0.010*[#   9]+0.010*[#  42]+0.010*[#  45]
    |psi|^2 = 1.000
==== e(  46) =   -11.10622 eV ==== 
     psi = 0.240*[#  15]+0.240*[#  27]+0.240*[#  51]+0.240*[#  63]+0.010*[#   6]
          +0.010*[#   9]+0.010*[#  42]+0.010*[#  45]
    |psi|^2 = 1.000
==== e(  47) =   -11.10383 eV ==== 
     psi = 0.248*[#  18]+0.248*[#  24]+0.248*[#  54]+0.248*[#  60]
    |psi|^2 = 1.000
==== e(  48) =   -11.10383 eV ==== 
     psi = 0.248*[#  18]+0.248*[#  24]+0.248*[#  54]+0.248*[#  60]
    |psi|^2 = 1.000
==== e(  49) =   -11.09653 eV ==== 
     psi = 0.240*[#   6]+0.240*[#   9]+0.240*[#  42]+0.240*[#  45]+0.009*[#  15]
          +0.009*[#  27]+0.009*[#  51]+0.009*[#  63]
    |psi|^2 = 1.000
==== e(  50) =   -11.09653 eV ==== 
     psi = 0.240*[#   6]+0.240*[#   9]+0.240*[#  42]+0.240*[#  45]+0.009*[#  15]
          +0.009*[#  27]+0.009*[#  51]+0.009*[#  63]
    |psi|^2 = 1.000
==== e(  51) =   -11.09202 eV ==== 
     psi = 0.469*[#   7]+0.469*[#  43]+0.012*[#  16]+0.012*[#  25]+0.012*[#  52]
          +0.012*[#  61]+0.007*[#  34]+0.007*[#  70]
    |psi|^2 = 1.000
==== e(  52) =   -11.09182 eV ==== 
     psi = 0.466*[#   7]+0.466*[#  43]+0.014*[#  16]+0.014*[#  25]+0.014*[#  52]
          +0.014*[#  61]+0.005*[#  34]+0.005*[#  70]
    |psi|^2 = 1.000
==== e(  53) =   -11.09008 eV ==== 
     psi = 0.240*[#   6]+0.240*[#   9]+0.240*[#  42]+0.240*[#  45]+0.010*[#  15]
          +0.010*[#  27]+0.010*[#  51]+0.010*[#  63]
    |psi|^2 = 1.000
==== e(  54) =   -11.09008 eV ==== 
     psi = 0.240*[#   6]+0.240*[#   9]+0.240*[#  42]+0.240*[#  45]+0.010*[#  15]
          +0.010*[#  27]+0.010*[#  51]+0.010*[#  63]
    |psi|^2 = 1.000
==== e(  55) =   -11.08164 eV ==== 
     psi = 0.482*[#  34]+0.482*[#  70]+0.007*[#  16]+0.007*[#  25]+0.007*[#  52]
          +0.007*[#  61]+0.004*[#   7]+0.004*[#  43]
    |psi|^2 = 1.000
==== e(  56) =   -11.08159 eV ==== 
     psi = 0.482*[#  34]+0.482*[#  70]+0.008*[#  16]+0.008*[#  25]+0.008*[#  52]
          +0.008*[#  61]+0.002*[#   7]+0.002*[#  43]
    |psi|^2 = 1.000
==== e(  57) =   -11.07993 eV ==== 
     psi = 0.138*[#  23]+0.138*[#  59]+0.134*[#  14]+0.134*[#  50]+0.060*[#  35]
          +0.060*[#  71]+0.047*[#  17]+0.047*[#  53]+0.044*[#  26]+0.044*[#  62]
          +0.036*[#   8]+0.036*[#  44]+0.020*[#  32]+0.020*[#  68]+0.012*[#   5]
          +0.012*[#  41]
    |psi|^2 = 1.000
==== e(  58) =   -11.06396 eV ==== 
     psi = 0.135*[#  32]+0.135*[#  68]+0.125*[#   5]+0.125*[#  41]+0.057*[#  17]
          +0.057*[#  53]+0.049*[#  26]+0.049*[#  62]+0.045*[#  35]+0.045*[#  71]
          +0.042*[#   8]+0.042*[#  44]+0.022*[#  23]+0.022*[#  59]+0.014*[#  14]
          +0.014*[#  50]+0.001*[# 149]+0.001*[# 153]+0.001*[# 161]+0.001*[# 165]
          
    |psi|^2 = 1.000
==== e(  59) =   -11.05699 eV ==== 
     psi = 0.249*[#  33]+0.249*[#  36]+0.249*[#  69]+0.249*[#  72]
    |psi|^2 = 1.000
==== e(  60) =   -11.05699 eV ==== 
     psi = 0.249*[#  33]+0.249*[#  36]+0.249*[#  69]+0.249*[#  72]
    |psi|^2 = 1.000
==== e(  61) =   -11.05329 eV ==== 
     psi = 0.249*[#  33]+0.249*[#  36]+0.249*[#  69]+0.249*[#  72]
    |psi|^2 = 1.000
==== e(  62) =   -11.05329 eV ==== 
     psi = 0.249*[#  33]+0.249*[#  36]+0.249*[#  69]+0.249*[#  72]
    |psi|^2 = 1.000
==== e(  63) =   -11.04214 eV ==== 
     psi = 0.132*[#  35]+0.132*[#  71]+0.105*[#   8]+0.105*[#  44]+0.082*[#  26]
          +0.082*[#  62]+0.081*[#  14]+0.081*[#  50]+0.044*[#  32]+0.044*[#  68]
          +0.035*[#   5]+0.035*[#  41]+0.006*[#  17]+0.006*[#  53]+0.006*[#  23]
          +0.006*[#  59]+0.002*[# 159]+0.002*[# 147]+0.002*[# 171]
    |psi|^2 = 1.000
==== e(  64) =   -10.98698 eV ==== 
     psi = 0.120*[#  35]+0.120*[#  71]+0.100*[#  26]+0.100*[#  62]+0.076*[#   8]
          +0.076*[#  44]+0.069*[#  17]+0.069*[#  53]+0.045*[#  14]+0.045*[#  50]
          +0.040*[#  32]+0.040*[#  68]+0.025*[#   5]+0.025*[#  41]+0.014*[#  23]
          +0.014*[#  59]+0.002*[# 169]+0.002*[# 149]+0.002*[# 153]+0.002*[# 157]
          +0.002*[# 161]+0.002*[# 165]+0.001*[# 145]
    |psi|^2 = 1.000
==== e(  65) =   -10.96956 eV ==== 
     psi = 0.149*[#   5]+0.149*[#  41]+0.139*[#  32]+0.139*[#  68]+0.050*[#   8]
          +0.050*[#  44]+0.046*[#  35]+0.046*[#  71]+0.042*[#  26]+0.042*[#  62]
          +0.036*[#  17]+0.036*[#  53]+0.016*[#  14]+0.016*[#  50]+0.010*[#  23]
          +0.010*[#  59]+0.001*[# 113]+0.001*[# 121]+0.001*[# 129]+0.001*[# 137]
          +0.001*[# 173]+0.001*[# 177]+0.001*[# 189]+0.001*[# 193]
    |psi|^2 = 1.000
==== e(  66) =   -10.95915 eV ==== 
     psi = 0.160*[#  35]+0.160*[#  71]+0.104*[#  23]+0.104*[#  59]+0.079*[#  14]
          +0.079*[#  50]+0.053*[#  32]+0.053*[#  68]+0.044*[#  17]+0.044*[#  53]
          +0.022*[#   8]+0.022*[#  44]+0.019*[#  26]+0.019*[#  62]+0.007*[#   5]
          +0.007*[#  41]+0.002*[# 171]+0.001*[# 117]+0.001*[# 125]+0.001*[# 133]
          +0.001*[# 141]+0.001*[# 181]+0.001*[# 185]+0.001*[# 197]+0.001*[# 201]
          
    |psi|^2 = 1.000
==== e(  67) =   -10.89641 eV ==== 
     psi = 0.189*[#  35]+0.189*[#  71]+0.114*[#  17]+0.114*[#  53]+0.092*[#  23]
          +0.092*[#  59]+0.063*[#  32]+0.063*[#  68]+0.023*[#  26]+0.023*[#  62]
          +0.007*[#   8]+0.007*[#  44]+0.003*[# 169]+0.002*[#   5]+0.002*[#  41]
          +0.001*[# 149]+0.001*[# 153]+0.001*[# 161]+0.001*[# 165]+0.001*[# 117]
          +0.001*[# 125]+0.001*[# 133]+0.001*[# 141]+0.001*[# 181]+0.001*[# 185]
          +0.001*[# 197]+0.001*[# 201]
    |psi|^2 = 1.000
==== e(  68) =   -10.87672 eV ==== 
     psi = 0.159*[#  26]+0.159*[#  62]+0.117*[#   5]+0.117*[#  41]+0.100*[#  14]
          +0.100*[#  50]+0.063*[#  17]+0.063*[#  53]+0.039*[#   8]+0.039*[#  44]
          +0.005*[#  32]+0.005*[#  68]+0.003*[#  23]+0.003*[#  59]+0.003*[# 149]
          +0.003*[# 153]+0.002*[# 161]+0.002*[# 165]+0.002*[# 113]+0.002*[# 121]
          +0.002*[# 129]+0.002*[# 137]+0.002*[# 173]+0.002*[# 177]+0.002*[# 189]
          +0.002*[# 193]+0.002*[#  35]+0.002*[#  71]
    |psi|^2 = 1.000
==== e(  69) =   -10.87224 eV ==== 
     psi = 0.247*[#   8]+0.247*[#  44]+0.082*[#   5]+0.082*[#  41]+0.078*[#  26]
          +0.078*[#  62]+0.064*[#  14]+0.064*[#  50]+0.014*[#  17]+0.014*[#  53]
          +0.006*[# 157]+0.005*[# 145]+0.001*[# 113]+0.001*[# 121]+0.001*[# 129]
          +0.001*[# 137]+0.001*[# 173]+0.001*[# 177]+0.001*[# 189]+0.001*[# 193]
          
    |psi|^2 = 1.000
==== e(  70) =   -10.87161 eV ==== 
     psi = 0.106*[#  32]+0.106*[#  68]+0.091*[#   5]+0.091*[#  41]+0.086*[#  23]
          +0.086*[#  59]+0.083*[#  14]+0.083*[#  50]+0.035*[#  35]+0.035*[#  71]
          +0.030*[#   8]+0.030*[#  44]+0.030*[#  17]+0.030*[#  53]+0.026*[#  26]
          +0.026*[#  62]+0.002*[# 117]+0.002*[# 125]+0.002*[# 133]+0.002*[# 141]
          +0.002*[# 181]+0.002*[# 185]+0.002*[# 197]+0.002*[# 201]+0.002*[# 113]
          +0.002*[# 121]+0.002*[# 129]+0.002*[# 137]+0.002*[# 173]+0.002*[# 177]
          +0.002*[# 189]+0.002*[# 193]
    |psi|^2 = 1.000
==== e(  71) =   -10.87057 eV ==== 
     psi = 0.149*[#  32]+0.149*[#  68]+0.123*[#  23]+0.123*[#  59]+0.094*[#  17]
          +0.094*[#  53]+0.050*[#  35]+0.050*[#  71]+0.031*[#   5]+0.031*[#  41]
          +0.029*[#  14]+0.029*[#  50]+0.010*[#   8]+0.010*[#  44]+0.002*[# 117]
          +0.002*[# 125]+0.002*[# 133]+0.002*[# 141]+0.002*[# 181]+0.002*[# 185]
          +0.002*[# 197]+0.002*[# 201]
    |psi|^2 = 1.000
==== e(  72) =    -3.69974 eV ==== 
     psi = 0.102*[#   1]+0.102*[#  37]+0.085*[#  10]+0.085*[#  19]+0.085*[#  46]
          +0.085*[#  55]+0.045*[#  28]+0.045*[#  64]+0.023*[# 159]+0.019*[# 116]
          +0.019*[# 124]+0.019*[# 132]+0.019*[# 140]+0.019*[# 174]+0.019*[# 178]
          +0.019*[# 190]+0.019*[# 194]+0.018*[# 147]+0.017*[# 151]+0.017*[# 155]
          +0.016*[# 163]+0.016*[# 167]+0.013*[# 120]+0.013*[# 128]+0.013*[# 136]
          +0.013*[# 144]+0.013*[# 182]+0.013*[# 186]+0.013*[# 198]+0.013*[# 202]
          +0.008*[# 171]
    |psi|^2 = 1.000
==== e(  73) =    -3.19077 eV ==== 
     psi = 0.089*[#  28]+0.089*[#  64]+0.073*[#  75]+0.073*[#  77]+0.073*[#  80]
          +0.073*[#  82]+0.073*[#  85]+0.073*[#  87]+0.073*[#  90]+0.073*[#  92]
          +0.013*[#  10]+0.013*[#  19]+0.013*[#  46]+0.013*[#  55]+0.010*[# 120]
          +0.010*[# 128]+0.010*[# 136]+0.010*[# 144]+0.010*[# 182]+0.010*[# 186]
          +0.010*[# 198]+0.010*[# 202]+0.009*[#  95]+0.009*[#  97]+0.009*[# 100]
          +0.009*[# 102]+0.009*[# 105]+0.009*[# 107]+0.009*[# 110]+0.009*[# 112]
          +0.003*[#  30]+0.003*[#  66]+0.001*[# 169]+0.001*[#   1]+0.001*[#   3]
          +0.001*[#  37]+0.001*[#  39]
    |psi|^2 = 1.000
==== e(  74) =    -3.13262 eV ==== 
     psi = 0.088*[#   1]+0.088*[#  37]+0.062*[#  10]+0.062*[#  19]+0.062*[#  46]
          +0.062*[#  55]+0.046*[#  28]+0.046*[#  64]+0.025*[#  75]+0.025*[#  77]
          +0.025*[#  80]+0.025*[#  82]+0.025*[#  85]+0.025*[#  87]+0.025*[#  90]
          +0.025*[#  92]+0.019*[# 116]+0.019*[# 124]+0.019*[# 132]+0.019*[# 140]
          +0.019*[# 174]+0.019*[# 178]+0.019*[# 190]+0.019*[# 194]+0.013*[# 120]
          +0.013*[# 128]+0.013*[# 136]+0.013*[# 144]+0.013*[# 182]+0.013*[# 186]
          +0.013*[# 198]+0.013*[# 202]+0.004*[# 145]+0.002*[# 157]+0.001*[# 149]
          +0.001*[# 153]+0.001*[# 161]+0.001*[# 165]+0.001*[#   3]+0.001*[#  39]
          +0.001*[# 169]
    |psi|^2 = 0.999
==== e(  75) =    -3.11957 eV ==== 
     psi = 0.091*[#  75]+0.091*[#  77]+0.091*[#  80]+0.091*[#  82]+0.091*[#  85]
          +0.091*[#  87]+0.091*[#  90]+0.091*[#  92]+0.024*[#  10]+0.024*[#  19]
          +0.024*[#  46]+0.024*[#  55]+0.016*[#  95]+0.016*[#  97]+0.016*[# 100]
          +0.016*[# 102]+0.016*[# 105]+0.016*[# 107]+0.016*[# 110]+0.016*[# 112]
          +0.002*[# 149]+0.002*[# 153]+0.002*[# 116]+0.002*[# 120]+0.002*[# 124]
          +0.002*[# 128]+0.002*[# 132]+0.002*[# 136]+0.002*[# 140]+0.002*[# 144]
          +0.002*[# 174]+0.002*[# 178]+0.002*[# 182]+0.002*[# 186]+0.002*[# 190]
          +0.002*[# 194]+0.002*[# 198]+0.002*[# 202]
    |psi|^2 = 1.000
==== e(  76) =    -3.11415 eV ==== 
     psi = 0.127*[#  76]+0.127*[#  81]+0.127*[#  86]+0.127*[#  91]+0.060*[#  96]
          +0.060*[# 101]+0.060*[# 106]+0.060*[# 111]+0.058*[#   1]+0.058*[#  37]
          +0.017*[# 159]+0.015*[# 147]+0.014*[#  10]+0.014*[#  19]+0.014*[#  46]
          +0.014*[#  55]+0.004*[# 151]+0.004*[# 155]+0.004*[# 163]+0.004*[# 167]
          +0.001*[# 113]+0.001*[# 120]+0.001*[# 121]+0.001*[# 128]+0.001*[# 129]
          +0.001*[# 136]+0.001*[# 137]+0.001*[# 144]+0.001*[# 173]+0.001*[# 177]
          +0.001*[# 182]+0.001*[# 186]+0.001*[# 189]+0.001*[# 193]+0.001*[# 198]
          +0.001*[# 202]+0.001*[# 116]+0.001*[# 124]+0.001*[# 132]+0.001*[# 140]
          +0.001*[# 174]+0.001*[# 178]+0.001*[# 190]+0.001*[# 194]
    |psi|^2 = 0.999
==== e(  77) =    -3.10246 eV ==== 
     psi = 0.112*[#  75]+0.112*[#  77]+0.112*[#  80]+0.112*[#  82]+0.112*[#  85]
          +0.112*[#  87]+0.112*[#  90]+0.112*[#  92]+0.008*[#  95]+0.008*[#  97]
          +0.008*[# 100]+0.008*[# 102]+0.008*[# 105]+0.008*[# 107]+0.008*[# 110]
          +0.008*[# 112]+0.003*[# 146]+0.003*[# 148]+0.002*[# 150]+0.002*[# 152]
          +0.002*[# 154]+0.002*[# 156]+0.001*[# 115]+0.001*[# 123]+0.001*[# 131]
          +0.001*[# 139]+0.001*[# 175]+0.001*[# 179]+0.001*[# 191]+0.001*[# 195]
          
    |psi|^2 = 1.000
==== e(  78) =    -3.10246 eV ==== 
     psi = 0.112*[#  75]+0.112*[#  77]+0.112*[#  80]+0.112*[#  82]+0.112*[#  85]
          +0.112*[#  87]+0.112*[#  90]+0.112*[#  92]+0.008*[#  95]+0.008*[#  97]
          +0.008*[# 100]+0.008*[# 102]+0.008*[# 105]+0.008*[# 107]+0.008*[# 110]
          +0.008*[# 112]+0.003*[# 146]+0.003*[# 148]+0.002*[# 150]+0.002*[# 152]
          +0.002*[# 154]+0.002*[# 156]+0.001*[# 115]+0.001*[# 123]+0.001*[# 131]
          +0.001*[# 139]+0.001*[# 175]+0.001*[# 179]+0.001*[# 191]+0.001*[# 195]
          
    |psi|^2 = 1.000
==== e(  79) =    -3.10201 eV ==== 
     psi = 0.163*[#  10]+0.163*[#  19]+0.163*[#  46]+0.163*[#  55]+0.043*[# 151]
          +0.043*[# 155]+0.040*[# 163]+0.040*[# 167]+0.010*[# 120]+0.010*[# 128]
          +0.010*[# 136]+0.010*[# 144]+0.010*[# 182]+0.010*[# 186]+0.010*[# 198]
          +0.010*[# 202]+0.010*[# 116]+0.010*[# 124]+0.010*[# 132]+0.010*[# 140]
          +0.010*[# 174]+0.010*[# 178]+0.010*[# 190]+0.010*[# 194]
    |psi|^2 = 0.999
==== e(  80) =    -3.07991 eV ==== 
     psi = 0.144*[#  76]+0.144*[#  81]+0.144*[#  86]+0.144*[#  91]+0.096*[#  96]
          +0.096*[# 101]+0.096*[# 106]+0.096*[# 111]+0.002*[# 114]+0.002*[# 122]
          +0.002*[# 130]+0.002*[# 138]+0.002*[# 176]+0.002*[# 180]+0.002*[# 192]
          +0.002*[# 196]+0.002*[# 118]+0.002*[# 126]+0.002*[# 134]+0.002*[# 142]
          +0.002*[# 184]+0.002*[# 188]+0.002*[# 200]+0.002*[# 204]
    |psi|^2 = 1.000
==== e(  81) =    -3.04169 eV ==== 
     psi = 0.152*[#  76]+0.152*[#  81]+0.152*[#  86]+0.152*[#  91]+0.086*[#  96]
          +0.086*[# 101]+0.086*[# 106]+0.086*[# 111]+0.002*[#   2]+0.002*[#   4]
          +0.002*[#  38]+0.002*[#  11]+0.002*[#  13]+0.002*[#  20]+0.002*[#  40]
          +0.002*[#  22]+0.002*[#  29]+0.002*[#  31]+0.002*[#  47]+0.002*[#  49]
          +0.002*[#  56]+0.002*[#  58]+0.002*[#  65]+0.002*[#  67]+0.001*[# 114]
          +0.001*[# 122]+0.001*[# 130]+0.001*[# 138]+0.001*[# 176]+0.001*[# 180]
          +0.001*[# 192]+0.001*[# 196]+0.001*[# 118]+0.001*[# 126]+0.001*[# 134]
          +0.001*[# 142]+0.001*[# 184]+0.001*[# 188]+0.001*[# 200]+0.001*[# 204]
          
    |psi|^2 = 1.000
==== e(  82) =    -3.04169 eV ==== 
     psi = 0.152*[#  76]+0.152*[#  81]+0.152*[#  86]+0.152*[#  91]+0.086*[#  96]
          +0.086*[# 101]+0.086*[# 106]+0.086*[# 111]+0.002*[#   2]+0.002*[#   4]
          +0.002*[#  38]+0.002*[#  11]+0.002*[#  13]+0.002*[#  20]+0.002*[#  40]
          +0.002*[#  22]+0.002*[#  29]+0.002*[#  31]+0.002*[#  47]+0.002*[#  49]
          +0.002*[#  56]+0.002*[#  58]+0.002*[#  65]+0.002*[#  67]+0.001*[# 114]
          +0.001*[# 122]+0.001*[# 130]+0.001*[# 138]+0.001*[# 176]+0.001*[# 180]
          +0.001*[# 192]+0.001*[# 196]+0.001*[# 118]+0.001*[# 126]+0.001*[# 134]
          +0.001*[# 142]+0.001*[# 184]+0.001*[# 188]+0.001*[# 200]+0.001*[# 204]
          
    |psi|^2 = 1.000
==== e(  83) =    -3.03302 eV ==== 
     psi = 0.095*[#  95]+0.095*[#  97]+0.095*[# 100]+0.095*[# 102]+0.095*[# 105]
          +0.095*[# 107]+0.095*[# 110]+0.095*[# 112]+0.022*[#  75]+0.022*[#  77]
          +0.022*[#  80]+0.022*[#  82]+0.022*[#  85]+0.022*[#  87]+0.022*[#  90]
          +0.022*[#  92]+0.006*[#  12]+0.006*[#  21]+0.006*[#  48]+0.006*[#  57]
          +0.004*[#  10]+0.004*[#  19]+0.004*[#  46]+0.004*[#  55]+0.002*[# 161]
          +0.002*[# 165]
    |psi|^2 = 1.000
==== e(  84) =    -3.02285 eV ==== 
     psi = 0.111*[#  95]+0.111*[#  97]+0.111*[# 100]+0.111*[# 102]+0.111*[# 105]
          +0.111*[# 107]+0.111*[# 110]+0.111*[# 112]+0.008*[#  75]+0.008*[#  77]
          +0.008*[#  80]+0.008*[#  82]+0.008*[#  85]+0.008*[#  87]+0.008*[#  90]
          +0.008*[#  92]+0.002*[# 170]+0.002*[# 172]+0.002*[# 162]+0.002*[# 164]
          +0.002*[# 166]+0.002*[# 168]+0.002*[# 158]+0.002*[# 160]+0.001*[#   2]
          +0.001*[#   4]+0.001*[#  11]+0.001*[#  13]+0.001*[#  20]+0.001*[#  22]
          +0.001*[#  38]+0.001*[#  47]+0.001*[#  49]+0.001*[#  56]+0.001*[#  58]
          +0.001*[#  29]+0.001*[#  31]+0.001*[#  40]+0.001*[#  65]+0.001*[#  67]
          
    |psi|^2 = 1.000
==== e(  85) =    -3.02285 eV ==== 
     psi = 0.111*[#  95]+0.111*[#  97]+0.111*[# 100]+0.111*[# 102]+0.111*[# 105]
          +0.111*[# 107]+0.111*[# 110]+0.111*[# 112]+0.008*[#  75]+0.008*[#  77]
          +0.008*[#  80]+0.008*[#  82]+0.008*[#  85]+0.008*[#  87]+0.008*[#  90]
          +0.008*[#  92]+0.002*[# 170]+0.002*[# 172]+0.002*[# 162]+0.002*[# 164]
          +0.002*[# 166]+0.002*[# 168]+0.002*[# 158]+0.002*[# 160]+0.001*[#   2]
          +0.001*[#   4]+0.001*[#  11]+0.001*[#  13]+0.001*[#  20]+0.001*[#  22]
          +0.001*[#  38]+0.001*[#  47]+0.001*[#  49]+0.001*[#  56]+0.001*[#  58]
          +0.001*[#  29]+0.001*[#  31]+0.001*[#  40]+0.001*[#  65]+0.001*[#  67]
          
    |psi|^2 = 1.000
==== e(  86) =    -3.02170 eV ==== 
     psi = 0.101*[#  95]+0.101*[#  97]+0.101*[# 100]+0.101*[# 102]+0.101*[# 105]
          +0.101*[# 107]+0.101*[# 110]+0.101*[# 112]+0.018*[#   1]+0.018*[#  37]
          +0.010*[#  75]+0.010*[#  77]+0.010*[#  80]+0.010*[#  82]+0.010*[#  85]
          +0.010*[#  87]+0.010*[#  90]+0.010*[#  92]+0.006*[#  30]+0.006*[#  66]
          +0.005*[#   3]+0.005*[#  39]+0.003*[#  10]+0.003*[#  19]+0.003*[#  46]
          +0.003*[#  55]+0.002*[# 157]+0.002*[# 116]+0.002*[# 124]+0.002*[# 132]
          +0.002*[# 140]+0.002*[# 174]+0.002*[# 178]+0.002*[# 190]+0.002*[# 194]
          +0.001*[# 169]
    |psi|^2 = 1.000
==== e(  87) =    -2.94267 eV ==== 
     psi = 0.120*[#  96]+0.120*[# 101]+0.120*[# 106]+0.120*[# 111]+0.102*[#  28]
          +0.102*[#  64]+0.053*[#   1]+0.053*[#  37]+0.032*[# 171]+0.015*[# 147]
          +0.013*[# 159]+0.008*[#  76]+0.008*[#  81]+0.008*[#  86]+0.008*[#  91]
          +0.008*[# 120]+0.008*[# 128]+0.008*[# 136]+0.008*[# 144]+0.008*[# 182]
          +0.008*[# 186]+0.008*[# 198]+0.008*[# 202]+0.003*[# 116]+0.003*[# 124]
          +0.003*[# 132]+0.003*[# 140]+0.003*[# 174]+0.003*[# 178]+0.003*[# 190]
          +0.003*[# 194]+0.002*[#  30]+0.002*[#  66]
    |psi|^2 = 0.999
==== e(  88) =    -2.93569 eV ==== 
     psi = 0.102*[#  75]+0.102*[#  77]+0.102*[#  80]+0.102*[#  82]+0.102*[#  85]
          +0.102*[#  87]+0.102*[#  90]+0.102*[#  92]+0.018*[#  95]+0.018*[#  97]
          +0.018*[# 100]+0.018*[# 102]+0.018*[# 105]+0.018*[# 107]+0.018*[# 110]
          +0.018*[# 112]+0.002*[# 146]+0.002*[# 148]+0.001*[# 150]+0.001*[# 156]
          +0.001*[#   2]+0.001*[#   4]+0.001*[#  11]+0.001*[#  22]
    |psi|^2 = 1.000
==== e(  89) =    -2.93569 eV ==== 
     psi = 0.102*[#  75]+0.102*[#  77]+0.102*[#  80]+0.102*[#  82]+0.102*[#  85]
          +0.102*[#  87]+0.102*[#  90]+0.102*[#  92]+0.018*[#  95]+0.018*[#  97]
          +0.018*[# 100]+0.018*[# 102]+0.018*[# 105]+0.018*[# 107]+0.018*[# 110]
          +0.018*[# 112]+0.002*[# 146]+0.002*[# 148]+0.001*[# 150]+0.001*[# 156]
          +0.001*[#   2]+0.001*[#   4]+0.001*[#  11]+0.001*[#  22]
    |psi|^2 = 1.000
==== e(  90) =    -2.89874 eV ==== 
     psi = 0.096*[#  76]+0.096*[#  81]+0.096*[#  86]+0.096*[#  91]+0.070*[#  28]
          +0.070*[#  64]+0.063*[#   1]+0.063*[#  37]+0.045*[#  96]+0.045*[# 101]
          +0.045*[# 106]+0.045*[# 111]+0.026*[# 159]+0.015*[# 171]+0.011*[# 147]
          +0.006*[# 120]+0.006*[# 128]+0.006*[# 136]+0.006*[# 144]+0.006*[# 182]
          +0.006*[# 186]+0.006*[# 198]+0.006*[# 202]+0.003*[# 116]+0.003*[# 124]
          +0.003*[# 132]+0.003*[# 140]+0.003*[# 174]+0.003*[# 178]+0.003*[# 190]
          +0.003*[# 194]+0.002*[#  10]+0.002*[#  19]+0.002*[#  46]+0.002*[#  55]
          +0.002*[#   3]+0.002*[#  39]+0.002*[# 163]+0.002*[# 167]+0.001*[#  12]
          +0.001*[#  21]+0.001*[#  48]+0.001*[#  57]+0.001*[# 115]+0.001*[# 123]
          +0.001*[# 131]+0.001*[# 139]+0.001*[# 175]+0.001*[# 179]+0.001*[# 191]
          +0.001*[# 195]
    |psi|^2 = 0.999
==== e(  91) =    -2.87934 eV ==== 
     psi = 0.117*[#  75]+0.117*[#  77]+0.117*[#  80]+0.117*[#  82]+0.117*[#  85]
          +0.117*[#  87]+0.117*[#  90]+0.117*[#  92]+0.006*[#  95]+0.006*[#  97]
          +0.006*[# 100]+0.006*[# 102]+0.006*[# 105]+0.006*[# 107]+0.006*[# 110]
          +0.006*[# 112]
    |psi|^2 = 1.000
==== e(  92) =    -2.86298 eV ==== 
     psi = 0.112*[#  75]+0.112*[#  77]+0.112*[#  80]+0.112*[#  82]+0.112*[#  85]
          +0.112*[#  87]+0.112*[#  90]+0.112*[#  92]+0.012*[#  95]+0.012*[#  97]
          +0.012*[# 100]+0.012*[# 102]+0.012*[# 105]+0.012*[# 107]+0.012*[# 110]
          +0.012*[# 112]
    |psi|^2 = 1.000
==== e(  93) =    -2.84584 eV ==== 
     psi = 0.157*[#  96]+0.157*[# 101]+0.157*[# 106]+0.157*[# 111]+0.090*[#  76]
          +0.090*[#  81]+0.090*[#  86]+0.090*[#  91]
    |psi|^2 = 1.000
==== e(  94) =    -2.84584 eV ==== 
     psi = 0.157*[#  96]+0.157*[# 101]+0.157*[# 106]+0.157*[# 111]+0.090*[#  76]
          +0.090*[#  81]+0.090*[#  86]+0.090*[#  91]
    |psi|^2 = 1.000
==== e(  95) =    -2.83663 eV ==== 
     psi = 0.103*[#  95]+0.103*[#  97]+0.103*[# 100]+0.103*[# 102]+0.103*[# 105]
          +0.103*[# 107]+0.103*[# 110]+0.103*[# 112]+0.020*[#  75]+0.020*[#  77]
          +0.020*[#  80]+0.020*[#  82]+0.020*[#  85]+0.020*[#  87]+0.020*[#  90]
          +0.020*[#  92]+0.001*[# 170]+0.001*[# 172]+0.001*[# 164]+0.001*[# 166]
          +0.001*[# 158]+0.001*[# 160]
    |psi|^2 = 1.000
==== e(  96) =    -2.83663 eV ==== 
     psi = 0.103*[#  95]+0.103*[#  97]+0.103*[# 100]+0.103*[# 102]+0.103*[# 105]
          +0.103*[# 107]+0.103*[# 110]+0.103*[# 112]+0.020*[#  75]+0.020*[#  77]
          +0.020*[#  80]+0.020*[#  82]+0.020*[#  85]+0.020*[#  87]+0.020*[#  90]
          +0.020*[#  92]+0.001*[# 170]+0.001*[# 172]+0.001*[# 164]+0.001*[# 166]
          +0.001*[# 158]+0.001*[# 160]
    |psi|^2 = 1.000
==== e(  97) =    -2.80336 eV ==== 
     psi = 0.149*[#  96]+0.149*[# 101]+0.149*[# 106]+0.149*[# 111]+0.101*[#  76]
          +0.101*[#  81]+0.101*[#  86]+0.101*[#  91]
    |psi|^2 = 1.000
==== e(  98) =    -2.79061 eV ==== 
     psi = 0.112*[#  95]+0.112*[#  97]+0.112*[# 100]+0.112*[# 102]+0.112*[# 105]
          +0.112*[# 107]+0.112*[# 110]+0.112*[# 112]+0.012*[#  75]+0.012*[#  77]
          +0.012*[#  80]+0.012*[#  82]+0.012*[#  85]+0.012*[#  87]+0.012*[#  90]
          +0.012*[#  92]
    |psi|^2 = 1.000
==== e(  99) =    -2.78399 eV ==== 
     psi = 0.118*[#  95]+0.118*[#  97]+0.118*[# 100]+0.118*[# 102]+0.118*[# 105]
          +0.118*[# 107]+0.118*[# 110]+0.118*[# 112]+0.007*[#  75]+0.007*[#  77]
          +0.007*[#  80]+0.007*[#  82]+0.007*[#  85]+0.007*[#  87]+0.007*[#  90]
          +0.007*[#  92]
    |psi|^2 = 1.000
==== e( 100) =    -2.18295 eV ==== 
     psi = 0.145*[#  28]+0.145*[#  64]+0.140*[#   1]+0.140*[#  37]+0.015*[# 116]
          +0.015*[# 124]+0.015*[# 132]+0.015*[# 140]+0.015*[# 174]+0.015*[# 178]
          +0.015*[# 190]+0.015*[# 194]+0.013*[#  75]+0.013*[#  77]+0.013*[#  80]
          +0.013*[#  82]+0.013*[#  85]+0.013*[#  87]+0.013*[#  90]+0.013*[#  92]
          +0.012*[# 120]+0.012*[# 128]+0.012*[# 136]+0.012*[# 144]+0.012*[# 182]
          +0.012*[# 186]+0.012*[# 198]+0.012*[# 202]+0.011*[#  95]+0.011*[#  97]
          +0.011*[# 100]+0.011*[# 102]+0.011*[# 105]+0.011*[# 107]+0.011*[# 110]
          +0.011*[# 112]+0.002*[# 157]+0.002*[# 145]+0.001*[# 169]
    |psi|^2 = 0.998
==== e( 101) =    -2.13365 eV ==== 
     psi = 0.147*[#  10]+0.147*[#  19]+0.147*[#  46]+0.147*[#  55]+0.014*[# 120]
          +0.014*[# 128]+0.014*[# 136]+0.014*[# 144]+0.014*[# 182]+0.014*[# 186]
          +0.014*[# 198]+0.014*[# 202]+0.014*[# 116]+0.014*[# 124]+0.014*[# 132]
          +0.014*[# 140]+0.014*[# 174]+0.014*[# 178]+0.014*[# 190]+0.014*[# 194]
          +0.010*[#  95]+0.010*[#  97]+0.010*[# 100]+0.010*[# 102]+0.010*[# 105]
          +0.010*[# 107]+0.010*[# 110]+0.010*[# 112]+0.009*[#  75]+0.009*[#  77]
          +0.009*[#  80]+0.009*[#  82]+0.009*[#  85]+0.009*[#  87]+0.009*[#  90]
          +0.009*[#  92]+0.002*[# 149]+0.002*[# 153]+0.002*[# 161]+0.002*[# 165]
          
    |psi|^2 = 0.997
==== e( 102) =    -2.00858 eV ==== 
     psi = 0.130*[#  28]+0.130*[#  64]+0.066*[#  10]+0.066*[#  19]+0.066*[#  46]
          +0.066*[#  55]+0.054*[# 171]+0.052*[#   1]+0.052*[#  37]+0.030*[# 151]
          +0.030*[# 155]+0.027*[# 159]+0.026*[# 163]+0.026*[# 167]+0.018*[#  96]
          +0.018*[# 101]+0.018*[# 106]+0.018*[# 111]+0.017*[# 147]+0.013*[#  76]
          +0.013*[#  81]+0.013*[#  86]+0.013*[#  91]+0.002*[# 117]+0.002*[# 125]
          +0.002*[# 133]+0.002*[# 141]+0.002*[# 181]+0.002*[# 185]+0.002*[# 197]
          +0.002*[# 201]+0.001*[# 120]+0.001*[# 128]+0.001*[# 136]+0.001*[# 144]
          +0.001*[# 182]+0.001*[# 186]+0.001*[# 198]+0.001*[# 202]
    |psi|^2 = 0.997
==== e( 103) =    -1.12482 eV ==== 
     psi = 0.106*[#   1]+0.106*[#  37]+0.100*[#  10]+0.100*[#  19]+0.100*[#  46]
          +0.100*[#  55]+0.084*[#  28]+0.084*[#  64]+0.019*[#  74]+0.019*[#  79]
          +0.019*[#  84]+0.019*[#  89]+0.016*[#  94]+0.016*[#  99]+0.016*[# 104]
          +0.016*[# 109]+0.003*[# 157]+0.003*[# 113]+0.003*[# 121]+0.003*[# 129]
          +0.003*[# 137]+0.003*[# 145]+0.003*[# 149]+0.003*[# 153]+0.003*[# 173]
          +0.003*[# 177]+0.003*[# 189]+0.003*[# 193]+0.003*[# 161]+0.003*[# 165]
          +0.003*[# 117]+0.003*[# 125]+0.003*[# 133]+0.003*[# 141]+0.003*[# 181]
          +0.003*[# 185]+0.003*[# 197]+0.003*[# 201]+0.002*[# 169]
    |psi|^2 = 0.999
==== e( 104) =     0.02709 eV ==== 
     psi = 0.281*[# 159]+0.260*[# 147]+0.070*[#   3]+0.070*[#  39]+0.050*[# 151]
          +0.050*[# 155]+0.039*[# 163]+0.039*[# 167]+0.012*[#  12]+0.012*[#  21]
          +0.012*[#  48]+0.012*[#  57]+0.009*[# 115]+0.009*[# 123]+0.009*[# 131]
          +0.009*[# 139]+0.009*[# 175]+0.009*[# 179]+0.009*[# 191]+0.009*[# 195]
          +0.002*[#  76]+0.002*[#  81]+0.002*[#  86]+0.002*[#  91]+0.002*[#  96]
          +0.002*[# 101]+0.002*[# 106]+0.002*[# 111]
    |psi|^2 = 0.998
==== e( 105) =     0.03245 eV ==== 
     psi = 0.089*[# 116]+0.089*[# 124]+0.089*[# 132]+0.089*[# 140]+0.089*[# 174]
          +0.089*[# 178]+0.089*[# 190]+0.089*[# 194]+0.023*[#   2]+0.023*[#   4]
          +0.023*[#  38]+0.023*[#  40]+0.023*[#  11]+0.023*[#  22]+0.023*[#  47]
          +0.023*[#  58]+0.007*[# 158]+0.007*[# 160]+0.007*[# 150]+0.007*[# 156]
          +0.006*[# 146]+0.006*[# 148]+0.006*[# 162]+0.006*[# 168]+0.001*[# 114]
          +0.001*[# 118]+0.001*[# 122]+0.001*[# 126]+0.001*[# 130]+0.001*[# 134]
          +0.001*[# 138]+0.001*[# 142]+0.001*[# 176]+0.001*[# 180]+0.001*[# 184]
          +0.001*[# 188]+0.001*[# 192]+0.001*[# 196]+0.001*[# 200]+0.001*[# 204]
          +0.001*[#  75]+0.001*[#  77]+0.001*[#  80]+0.001*[#  82]+0.001*[#  85]
          +0.001*[#  87]+0.001*[#  90]+0.001*[#  92]
    |psi|^2 = 0.998
==== e( 106) =     0.03245 eV ==== 
     psi = 0.089*[# 116]+0.089*[# 124]+0.089*[# 132]+0.089*[# 140]+0.089*[# 174]
          +0.089*[# 178]+0.089*[# 190]+0.089*[# 194]+0.023*[#   2]+0.023*[#   4]
          +0.023*[#  38]+0.023*[#  40]+0.023*[#  11]+0.023*[#  22]+0.023*[#  47]
          +0.023*[#  58]+0.007*[# 158]+0.007*[# 160]+0.007*[# 150]+0.007*[# 156]
          +0.006*[# 146]+0.006*[# 148]+0.006*[# 162]+0.006*[# 168]+0.001*[# 114]
          +0.001*[# 118]+0.001*[# 122]+0.001*[# 126]+0.001*[# 130]+0.001*[# 134]
          +0.001*[# 138]+0.001*[# 142]+0.001*[# 176]+0.001*[# 180]+0.001*[# 184]
          +0.001*[# 188]+0.001*[# 192]+0.001*[# 196]+0.001*[# 200]+0.001*[# 204]
          +0.001*[#  75]+0.001*[#  77]+0.001*[#  80]+0.001*[#  82]+0.001*[#  85]
          +0.001*[#  87]+0.001*[#  90]+0.001*[#  92]
    |psi|^2 = 0.998
==== e( 107) =     0.04010 eV ==== 
     psi = 0.187*[# 151]+0.187*[# 155]+0.181*[# 163]+0.181*[# 167]+0.048*[#  12]
          +0.048*[#  21]+0.048*[#  48]+0.048*[#  57]+0.004*[# 115]+0.004*[# 119]
          +0.004*[# 123]+0.004*[# 127]+0.004*[# 131]+0.004*[# 135]+0.004*[# 139]
          +0.004*[# 143]+0.004*[# 175]+0.004*[# 179]+0.004*[# 183]+0.004*[# 187]
          +0.004*[# 191]+0.004*[# 195]+0.004*[# 199]+0.004*[# 203]
    |psi|^2 = 0.998
==== e( 108) =     0.04247 eV ==== 
     psi = 0.054*[# 116]+0.054*[# 124]+0.054*[# 132]+0.054*[# 140]+0.054*[# 174]
          +0.054*[# 178]+0.054*[# 190]+0.054*[# 194]+0.038*[# 120]+0.038*[# 128]
          +0.038*[# 136]+0.038*[# 144]+0.038*[# 182]+0.038*[# 186]+0.038*[# 198]
          +0.038*[# 202]+0.014*[#   2]+0.014*[#   4]+0.014*[#  11]+0.014*[#  22]
          +0.014*[#  38]+0.014*[#  40]+0.014*[#  47]+0.014*[#  58]+0.010*[#  13]
          +0.010*[#  20]+0.010*[#  29]+0.010*[#  31]+0.010*[#  49]+0.010*[#  56]
          +0.010*[#  65]+0.010*[#  67]+0.004*[# 114]+0.004*[# 122]+0.004*[# 130]
          +0.004*[# 138]+0.004*[# 176]+0.004*[# 180]+0.004*[# 192]+0.004*[# 196]
          +0.004*[# 118]+0.004*[# 126]+0.004*[# 134]+0.004*[# 142]+0.004*[# 184]
          +0.004*[# 188]+0.004*[# 200]+0.004*[# 204]
    |psi|^2 = 0.998
==== e( 109) =     0.04247 eV ==== 
     psi = 0.054*[# 116]+0.054*[# 124]+0.054*[# 132]+0.054*[# 140]+0.054*[# 174]
          +0.054*[# 178]+0.054*[# 190]+0.054*[# 194]+0.038*[# 120]+0.038*[# 128]
          +0.038*[# 136]+0.038*[# 144]+0.038*[# 182]+0.038*[# 186]+0.038*[# 198]
          +0.038*[# 202]+0.014*[#   2]+0.014*[#   4]+0.014*[#  11]+0.014*[#  22]
          +0.014*[#  38]+0.014*[#  40]+0.014*[#  47]+0.014*[#  58]+0.010*[#  13]
          +0.010*[#  20]+0.010*[#  29]+0.010*[#  31]+0.010*[#  49]+0.010*[#  56]
          +0.010*[#  65]+0.010*[#  67]+0.004*[# 114]+0.004*[# 122]+0.004*[# 130]
          +0.004*[# 138]+0.004*[# 176]+0.004*[# 180]+0.004*[# 192]+0.004*[# 196]
          +0.004*[# 118]+0.004*[# 126]+0.004*[# 134]+0.004*[# 142]+0.004*[# 184]
          +0.004*[# 188]+0.004*[# 200]+0.004*[# 204]
    |psi|^2 = 0.998
==== e( 110) =     0.07196 eV ==== 
     psi = 0.092*[# 120]+0.092*[# 128]+0.092*[# 136]+0.092*[# 144]+0.092*[# 182]
          +0.092*[# 186]+0.092*[# 198]+0.092*[# 202]+0.024*[#  13]+0.024*[#  20]
          +0.024*[#  49]+0.024*[#  56]+0.022*[#  29]+0.022*[#  31]+0.022*[#  65]
          +0.022*[#  67]+0.008*[# 152]+0.008*[# 154]+0.007*[# 164]+0.007*[# 166]
          +0.005*[# 170]+0.005*[# 172]+0.001*[# 116]+0.001*[# 124]+0.001*[# 132]
          +0.001*[# 140]+0.001*[# 174]+0.001*[# 178]+0.001*[# 190]+0.001*[# 194]
          +0.001*[# 114]+0.001*[# 122]+0.001*[# 130]+0.001*[# 138]+0.001*[# 176]
          +0.001*[# 180]+0.001*[# 192]+0.001*[# 196]
    |psi|^2 = 0.998
==== e( 111) =     0.07196 eV ==== 
     psi = 0.092*[# 120]+0.092*[# 128]+0.092*[# 136]+0.092*[# 144]+0.092*[# 182]
          +0.092*[# 186]+0.092*[# 198]+0.092*[# 202]+0.024*[#  13]+0.024*[#  20]
          +0.024*[#  49]+0.024*[#  56]+0.022*[#  29]+0.022*[#  31]+0.022*[#  65]
          +0.022*[#  67]+0.008*[# 152]+0.008*[# 154]+0.007*[# 164]+0.007*[# 166]
          +0.005*[# 170]+0.005*[# 172]+0.001*[# 116]+0.001*[# 124]+0.001*[# 132]
          +0.001*[# 140]+0.001*[# 174]+0.001*[# 178]+0.001*[# 190]+0.001*[# 194]
          +0.001*[# 114]+0.001*[# 122]+0.001*[# 130]+0.001*[# 138]+0.001*[# 176]
          +0.001*[# 180]+0.001*[# 192]+0.001*[# 196]
    |psi|^2 = 0.998
==== e( 112) =     0.11440 eV ==== 
     psi = 0.147*[# 163]+0.147*[# 167]+0.144*[# 151]+0.144*[# 155]+0.108*[# 159]
          +0.097*[# 147]+0.033*[#  12]+0.033*[#  21]+0.033*[#  48]+0.033*[#  57]
          +0.022*[#   3]+0.022*[#  39]+0.003*[# 119]+0.003*[# 127]+0.003*[# 135]
          +0.003*[# 143]+0.003*[# 183]+0.003*[# 187]+0.003*[# 199]+0.003*[# 203]
          +0.002*[# 171]
    |psi|^2 = 0.998
==== e( 113) =     0.15866 eV ==== 
     psi = 0.060*[# 120]+0.060*[# 128]+0.060*[# 136]+0.060*[# 144]+0.060*[# 182]
          +0.060*[# 186]+0.060*[# 198]+0.060*[# 202]+0.044*[# 116]+0.044*[# 124]
          +0.044*[# 132]+0.044*[# 140]+0.044*[# 174]+0.044*[# 178]+0.044*[# 190]
          +0.044*[# 194]+0.013*[#  13]+0.013*[#  20]+0.013*[#  49]+0.013*[#  56]
          +0.013*[#  29]+0.013*[#  31]+0.013*[#  65]+0.013*[#  67]+0.009*[#   2]
          +0.009*[#   4]+0.009*[#  11]+0.009*[#  22]+0.009*[#  38]+0.009*[#  40]
          +0.009*[#  47]+0.009*[#  58]
    |psi|^2 = 0.998
==== e( 114) =     0.15866 eV ==== 
     psi = 0.060*[# 120]+0.060*[# 128]+0.060*[# 136]+0.060*[# 144]+0.060*[# 182]
          +0.060*[# 186]+0.060*[# 198]+0.060*[# 202]+0.044*[# 116]+0.044*[# 124]
          +0.044*[# 132]+0.044*[# 140]+0.044*[# 174]+0.044*[# 178]+0.044*[# 190]
          +0.044*[# 194]+0.013*[#  13]+0.013*[#  20]+0.013*[#  49]+0.013*[#  56]
          +0.013*[#  29]+0.013*[#  31]+0.013*[#  65]+0.013*[#  67]+0.009*[#   2]
          +0.009*[#   4]+0.009*[#  11]+0.009*[#  22]+0.009*[#  38]+0.009*[#  40]
          +0.009*[#  47]+0.009*[#  58]
    |psi|^2 = 0.998
==== e( 115) =     0.92373 eV ==== 
     psi = 0.509*[# 171]+0.057*[#  30]+0.057*[#  66]+0.024*[# 119]+0.024*[# 127]
          +0.024*[# 135]+0.024*[# 143]+0.024*[# 183]+0.024*[# 187]+0.024*[# 199]
          +0.024*[# 203]+0.018*[# 163]+0.018*[# 167]+0.013*[# 120]+0.013*[# 128]
          +0.013*[# 136]+0.013*[# 144]+0.013*[# 182]+0.013*[# 186]+0.013*[# 198]
          +0.013*[# 202]+0.007*[#  28]+0.007*[#  64]+0.007*[# 147]+0.002*[#  35]
          +0.002*[#  71]
    |psi|^2 = 0.996
==== e( 116) =     1.08013 eV ==== 
     psi = 0.061*[# 114]+0.061*[# 122]+0.061*[# 130]+0.061*[# 138]+0.061*[# 176]
          +0.061*[# 180]+0.061*[# 192]+0.061*[# 196]+0.055*[# 118]+0.055*[# 126]
          +0.055*[# 134]+0.055*[# 142]+0.055*[# 184]+0.055*[# 188]+0.055*[# 200]
          +0.055*[# 204]+0.008*[#  74]+0.008*[#  79]+0.008*[#  84]+0.008*[#  89]
          +0.008*[#  94]+0.008*[#  99]+0.008*[# 104]+0.008*[# 109]
    |psi|^2 = 0.993
==== e( 117) =     1.10431 eV ==== 
     psi = 0.062*[# 158]+0.062*[# 160]+0.044*[# 162]+0.044*[# 168]+0.035*[# 164]
          +0.035*[# 166]+0.033*[# 115]+0.033*[# 123]+0.033*[# 131]+0.033*[# 139]
          +0.033*[# 175]+0.033*[# 179]+0.033*[# 191]+0.033*[# 195]+0.025*[# 152]
          +0.025*[# 154]+0.023*[# 119]+0.023*[# 127]+0.023*[# 135]+0.023*[# 143]
          +0.023*[# 183]+0.023*[# 187]+0.023*[# 199]+0.023*[# 203]+0.023*[# 170]
          +0.023*[# 172]+0.022*[# 150]+0.022*[# 156]+0.016*[# 146]+0.016*[# 148]
          +0.010*[#  94]+0.010*[#  99]+0.010*[# 104]+0.010*[# 109]+0.005*[#  74]
          +0.005*[#  79]+0.005*[#  84]+0.005*[#  89]+0.001*[# 114]+0.001*[# 118]
          +0.001*[# 122]+0.001*[# 126]+0.001*[# 130]+0.001*[# 134]+0.001*[# 138]
          +0.001*[# 142]+0.001*[# 176]+0.001*[# 180]+0.001*[# 184]+0.001*[# 188]
          +0.001*[# 192]+0.001*[# 196]+0.001*[# 200]+0.001*[# 204]
    |psi|^2 = 0.993
==== e( 118) =     1.10431 eV ==== 
     psi = 0.062*[# 158]+0.062*[# 160]+0.044*[# 162]+0.044*[# 168]+0.035*[# 164]
          +0.035*[# 166]+0.033*[# 115]+0.033*[# 123]+0.033*[# 131]+0.033*[# 139]
          +0.033*[# 175]+0.033*[# 179]+0.033*[# 191]+0.033*[# 195]+0.025*[# 152]
          +0.025*[# 154]+0.023*[# 119]+0.023*[# 127]+0.023*[# 135]+0.023*[# 143]
          +0.023*[# 183]+0.023*[# 187]+0.023*[# 199]+0.023*[# 203]+0.023*[# 170]
          +0.023*[# 172]+0.022*[# 150]+0.022*[# 156]+0.016*[# 146]+0.016*[# 148]
          +0.010*[#  94]+0.010*[#  99]+0.010*[# 104]+0.010*[# 109]+0.005*[#  74]
          +0.005*[#  79]+0.005*[#  84]+0.005*[#  89]+0.001*[# 114]+0.001*[# 118]
          +0.001*[# 122]+0.001*[# 126]+0.001*[# 130]+0.001*[# 134]+0.001*[# 138]
          +0.001*[# 142]+0.001*[# 176]+0.001*[# 180]+0.001*[# 184]+0.001*[# 188]
          +0.001*[# 192]+0.001*[# 196]+0.001*[# 200]+0.001*[# 204]
    |psi|^2 = 0.993
==== e( 119) =     1.14143 eV ==== 
     psi = 0.054*[# 115]+0.054*[# 123]+0.054*[# 131]+0.054*[# 139]+0.054*[# 175]
          +0.054*[# 179]+0.054*[# 191]+0.054*[# 195]+0.054*[# 119]+0.054*[# 127]
          +0.054*[# 135]+0.054*[# 143]+0.054*[# 183]+0.054*[# 187]+0.054*[# 199]
          +0.054*[# 203]+0.011*[#  30]+0.011*[#  66]+0.008*[#   3]+0.008*[#  39]
          +0.008*[#  12]+0.008*[#  21]+0.008*[#  48]+0.008*[#  57]+0.006*[#  94]
          +0.006*[#  99]+0.006*[# 104]+0.006*[# 109]+0.005*[#  74]+0.005*[#  79]
          +0.005*[#  84]+0.005*[#  89]+0.001*[# 169]+0.001*[# 145]+0.001*[# 157]
          +0.001*[# 149]+0.001*[# 153]+0.001*[# 161]+0.001*[# 165]
    |psi|^2 = 0.996
==== e( 120) =     1.18254 eV ==== 
     psi = 0.063*[# 150]+0.063*[# 156]+0.052*[# 152]+0.052*[# 154]+0.029*[# 146]
          +0.029*[# 148]+0.029*[# 158]+0.029*[# 160]+0.029*[# 118]+0.029*[# 126]
          +0.029*[# 134]+0.029*[# 142]+0.029*[# 184]+0.029*[# 188]+0.029*[# 200]
          +0.029*[# 204]+0.029*[# 114]+0.029*[# 122]+0.029*[# 130]+0.029*[# 138]
          +0.029*[# 176]+0.029*[# 180]+0.029*[# 192]+0.029*[# 196]+0.011*[# 162]
          +0.011*[# 168]+0.009*[# 170]+0.009*[# 172]+0.008*[# 164]+0.008*[# 166]
          +0.007*[#  74]+0.007*[#  79]+0.007*[#  84]+0.007*[#  89]+0.004*[#   2]
          +0.004*[#   4]+0.004*[#  11]+0.004*[#  22]+0.004*[#  38]+0.004*[#  40]
          +0.004*[#  47]+0.004*[#  58]+0.003*[#  29]+0.003*[#  31]+0.003*[#  65]
          +0.003*[#  67]+0.003*[#  13]+0.003*[#  20]+0.003*[#  49]+0.003*[#  56]
          +0.003*[#  94]+0.003*[#  99]+0.003*[# 104]+0.003*[# 109]+0.002*[# 115]
          +0.002*[# 123]+0.002*[# 131]+0.002*[# 139]+0.002*[# 175]+0.002*[# 179]
          +0.002*[# 191]+0.002*[# 195]+0.001*[# 119]+0.001*[# 127]+0.001*[# 135]
          +0.001*[# 143]+0.001*[# 183]+0.001*[# 187]+0.001*[# 199]+0.001*[# 203]
          
    |psi|^2 = 0.995
==== e( 121) =     1.18254 eV ==== 
     psi = 0.063*[# 150]+0.063*[# 156]+0.052*[# 152]+0.052*[# 154]+0.029*[# 146]
          +0.029*[# 148]+0.029*[# 158]+0.029*[# 160]+0.029*[# 118]+0.029*[# 126]
          +0.029*[# 134]+0.029*[# 142]+0.029*[# 184]+0.029*[# 188]+0.029*[# 200]
          +0.029*[# 204]+0.029*[# 114]+0.029*[# 122]+0.029*[# 130]+0.029*[# 138]
          +0.029*[# 176]+0.029*[# 180]+0.029*[# 192]+0.029*[# 196]+0.011*[# 162]
          +0.011*[# 168]+0.009*[# 170]+0.009*[# 172]+0.008*[# 164]+0.008*[# 166]
          +0.007*[#  74]+0.007*[#  79]+0.007*[#  84]+0.007*[#  89]+0.004*[#   2]
          +0.004*[#   4]+0.004*[#  11]+0.004*[#  22]+0.004*[#  38]+0.004*[#  40]
          +0.004*[#  47]+0.004*[#  58]+0.003*[#  29]+0.003*[#  31]+0.003*[#  65]
          +0.003*[#  67]+0.003*[#  13]+0.003*[#  20]+0.003*[#  49]+0.003*[#  56]
          +0.003*[#  94]+0.003*[#  99]+0.003*[# 104]+0.003*[# 109]+0.002*[# 115]
          +0.002*[# 123]+0.002*[# 131]+0.002*[# 139]+0.002*[# 175]+0.002*[# 179]
          +0.002*[# 191]+0.002*[# 195]+0.001*[# 119]+0.001*[# 127]+0.001*[# 135]
          +0.001*[# 143]+0.001*[# 183]+0.001*[# 187]+0.001*[# 199]+0.001*[# 203]
          
    |psi|^2 = 0.995
==== e( 122) =     1.40134 eV ==== 
     psi = 0.075*[# 114]+0.075*[# 122]+0.075*[# 130]+0.075*[# 138]+0.075*[# 176]
          +0.075*[# 180]+0.075*[# 192]+0.075*[# 196]+0.044*[# 118]+0.044*[# 126]
          +0.044*[# 134]+0.044*[# 142]+0.044*[# 184]+0.044*[# 188]+0.044*[# 200]
          +0.044*[# 204]+0.005*[#  76]+0.005*[#  81]+0.005*[#  86]+0.005*[#  91]
          +0.005*[#  96]+0.005*[# 101]+0.005*[# 106]+0.005*[# 111]
    |psi|^2 = 0.986
==== e( 123) =     1.40463 eV ==== 
     psi = 0.120*[# 158]+0.120*[# 160]+0.077*[# 152]+0.077*[# 154]+0.065*[# 164]
          +0.065*[# 166]+0.026*[# 119]+0.026*[# 127]+0.026*[# 135]+0.026*[# 143]
          +0.026*[# 183]+0.026*[# 187]+0.026*[# 199]+0.026*[# 203]+0.019*[# 146]
          +0.019*[# 148]+0.017*[# 115]+0.017*[# 123]+0.017*[# 131]+0.017*[# 139]
          +0.017*[# 175]+0.017*[# 179]+0.017*[# 191]+0.017*[# 195]+0.004*[# 170]
          +0.004*[# 172]+0.003*[# 114]+0.003*[# 122]+0.003*[# 130]+0.003*[# 138]
          +0.003*[# 176]+0.003*[# 180]+0.003*[# 192]+0.003*[# 196]+0.002*[#  95]
          +0.002*[#  97]+0.002*[# 100]+0.002*[# 102]+0.002*[# 105]+0.002*[# 107]
          +0.002*[# 110]+0.002*[# 112]+0.002*[# 150]+0.002*[# 156]+0.001*[# 118]
          +0.001*[# 126]+0.001*[# 134]+0.001*[# 142]+0.001*[# 184]+0.001*[# 188]
          +0.001*[# 200]+0.001*[# 204]+0.001*[#  75]+0.001*[#  77]+0.001*[#  80]
          +0.001*[#  82]+0.001*[#  85]+0.001*[#  87]+0.001*[#  90]+0.001*[#  92]
          +0.001*[# 162]+0.001*[# 168]
    |psi|^2 = 0.987
==== e( 124) =     1.40463 eV ==== 
     psi = 0.120*[# 158]+0.120*[# 160]+0.077*[# 152]+0.077*[# 154]+0.065*[# 164]
          +0.065*[# 166]+0.026*[# 119]+0.026*[# 127]+0.026*[# 135]+0.026*[# 143]
          +0.026*[# 183]+0.026*[# 187]+0.026*[# 199]+0.026*[# 203]+0.019*[# 146]
          +0.019*[# 148]+0.017*[# 115]+0.017*[# 123]+0.017*[# 131]+0.017*[# 139]
          +0.017*[# 175]+0.017*[# 179]+0.017*[# 191]+0.017*[# 195]+0.004*[# 170]
          +0.004*[# 172]+0.003*[# 114]+0.003*[# 122]+0.003*[# 130]+0.003*[# 138]
          +0.003*[# 176]+0.003*[# 180]+0.003*[# 192]+0.003*[# 196]+0.002*[#  95]
          +0.002*[#  97]+0.002*[# 100]+0.002*[# 102]+0.002*[# 105]+0.002*[# 107]
          +0.002*[# 110]+0.002*[# 112]+0.002*[# 150]+0.002*[# 156]+0.001*[# 118]
          +0.001*[# 126]+0.001*[# 134]+0.001*[# 142]+0.001*[# 184]+0.001*[# 188]
          +0.001*[# 200]+0.001*[# 204]+0.001*[#  75]+0.001*[#  77]+0.001*[#  80]
          +0.001*[#  82]+0.001*[#  85]+0.001*[#  87]+0.001*[#  90]+0.001*[#  92]
          +0.001*[# 162]+0.001*[# 168]
    |psi|^2 = 0.987
==== e( 125) =     1.44736 eV ==== 
     psi = 0.063*[# 115]+0.063*[# 123]+0.063*[# 131]+0.063*[# 139]+0.063*[# 175]
          +0.063*[# 179]+0.063*[# 191]+0.063*[# 195]+0.042*[# 119]+0.042*[# 127]
          +0.042*[# 135]+0.042*[# 143]+0.042*[# 183]+0.042*[# 187]+0.042*[# 199]
          +0.042*[# 203]+0.011*[# 114]+0.011*[# 122]+0.011*[# 130]+0.011*[# 138]
          +0.011*[# 176]+0.011*[# 180]+0.011*[# 192]+0.011*[# 196]+0.006*[# 118]
          +0.006*[# 126]+0.006*[# 134]+0.006*[# 142]+0.006*[# 184]+0.006*[# 188]
          +0.006*[# 200]+0.006*[# 204]
    |psi|^2 = 0.986
==== e( 126) =     1.44736 eV ==== 
     psi = 0.063*[# 115]+0.063*[# 123]+0.063*[# 131]+0.063*[# 139]+0.063*[# 175]
          +0.063*[# 179]+0.063*[# 191]+0.063*[# 195]+0.042*[# 119]+0.042*[# 127]
          +0.042*[# 135]+0.042*[# 143]+0.042*[# 183]+0.042*[# 187]+0.042*[# 199]
          +0.042*[# 203]+0.011*[# 114]+0.011*[# 122]+0.011*[# 130]+0.011*[# 138]
          +0.011*[# 176]+0.011*[# 180]+0.011*[# 192]+0.011*[# 196]+0.006*[# 118]
          +0.006*[# 126]+0.006*[# 134]+0.006*[# 142]+0.006*[# 184]+0.006*[# 188]
          +0.006*[# 200]+0.006*[# 204]
    |psi|^2 = 0.986
==== e( 127) =     1.45555 eV ==== 
     psi = 0.160*[# 150]+0.160*[# 156]+0.109*[# 158]+0.109*[# 160]+0.017*[# 114]
          +0.017*[# 122]+0.017*[# 130]+0.017*[# 138]+0.017*[# 170]+0.017*[# 172]
          +0.017*[# 176]+0.017*[# 180]+0.017*[# 192]+0.017*[# 196]+0.016*[# 118]
          +0.016*[# 126]+0.016*[# 134]+0.016*[# 142]+0.016*[# 184]+0.016*[# 188]
          +0.016*[# 200]+0.016*[# 204]+0.011*[# 146]+0.011*[# 148]+0.007*[# 119]
          +0.007*[# 127]+0.007*[# 135]+0.007*[# 143]+0.007*[# 183]+0.007*[# 187]
          +0.007*[# 199]+0.007*[# 203]+0.005*[# 115]+0.005*[# 123]+0.005*[# 131]
          +0.005*[# 139]+0.005*[# 175]+0.005*[# 179]+0.005*[# 191]+0.005*[# 195]
          +0.002*[# 164]+0.002*[# 166]+0.002*[# 162]+0.002*[# 168]+0.001*[# 152]
          +0.001*[# 154]+0.001*[#  75]+0.001*[#  77]+0.001*[#  80]+0.001*[#  82]
          +0.001*[#  85]+0.001*[#  87]+0.001*[#  90]+0.001*[#  92]
    |psi|^2 = 0.987
==== e( 128) =     1.45555 eV ==== 
     psi = 0.160*[# 150]+0.160*[# 156]+0.109*[# 158]+0.109*[# 160]+0.017*[# 114]
          +0.017*[# 122]+0.017*[# 130]+0.017*[# 138]+0.017*[# 170]+0.017*[# 172]
          +0.017*[# 176]+0.017*[# 180]+0.017*[# 192]+0.017*[# 196]+0.016*[# 118]
          +0.016*[# 126]+0.016*[# 134]+0.016*[# 142]+0.016*[# 184]+0.016*[# 188]
          +0.016*[# 200]+0.016*[# 204]+0.011*[# 146]+0.011*[# 148]+0.007*[# 119]
          +0.007*[# 127]+0.007*[# 135]+0.007*[# 143]+0.007*[# 183]+0.007*[# 187]
          +0.007*[# 199]+0.007*[# 203]+0.005*[# 115]+0.005*[# 123]+0.005*[# 131]
          +0.005*[# 139]+0.005*[# 175]+0.005*[# 179]+0.005*[# 191]+0.005*[# 195]
          +0.002*[# 164]+0.002*[# 166]+0.002*[# 162]+0.002*[# 168]+0.001*[# 152]
          +0.001*[# 154]+0.001*[#  75]+0.001*[#  77]+0.001*[#  80]+0.001*[#  82]
          +0.001*[#  85]+0.001*[#  87]+0.001*[#  90]+0.001*[#  92]
    |psi|^2 = 0.987
==== e( 129) =     1.45706 eV ==== 
     psi = 0.199*[# 159]+0.188*[# 147]+0.047*[# 116]+0.047*[# 124]+0.047*[# 132]
          +0.047*[# 140]+0.047*[# 174]+0.047*[# 178]+0.047*[# 190]+0.047*[# 194]
          +0.045*[# 151]+0.045*[# 155]+0.035*[# 163]+0.035*[# 167]+0.006*[# 115]
          +0.006*[# 123]+0.006*[# 131]+0.006*[# 139]+0.006*[# 175]+0.006*[# 179]
          +0.006*[# 191]+0.006*[# 195]+0.004*[#   8]+0.004*[#  44]+0.002*[# 171]
          +0.001*[#  26]+0.001*[#  62]+0.001*[#   5]+0.001*[#  14]+0.001*[#  41]
          +0.001*[#  50]
    |psi|^2 = 0.993
==== e( 130) =     1.45913 eV ==== 
     psi = 0.065*[# 114]+0.065*[# 122]+0.065*[# 130]+0.065*[# 138]+0.065*[# 176]
          +0.065*[# 180]+0.065*[# 192]+0.065*[# 196]+0.058*[# 118]+0.058*[# 126]
          +0.058*[# 134]+0.058*[# 142]+0.058*[# 184]+0.058*[# 188]+0.058*[# 200]
          +0.058*[# 204]
    |psi|^2 = 0.985
==== e( 131) =     1.46117 eV ==== 
     psi = 0.085*[# 116]+0.085*[# 124]+0.085*[# 132]+0.085*[# 140]+0.085*[# 174]
          +0.085*[# 178]+0.085*[# 190]+0.085*[# 194]+0.076*[# 151]+0.076*[# 155]
          +0.065*[# 163]+0.065*[# 167]+0.003*[#  26]+0.003*[#  62]+0.002*[#   5]
          +0.002*[#  14]+0.002*[#  41]+0.002*[#  50]
    |psi|^2 = 0.993
==== e( 132) =     1.46126 eV ==== 
     psi = 0.077*[# 118]+0.077*[# 126]+0.077*[# 134]+0.077*[# 142]+0.077*[# 184]
          +0.077*[# 188]+0.077*[# 200]+0.077*[# 204]+0.046*[# 114]+0.046*[# 122]
          +0.046*[# 130]+0.046*[# 138]+0.046*[# 176]+0.046*[# 180]+0.046*[# 192]
          +0.046*[# 196]
    |psi|^2 = 0.985
==== e( 133) =     1.46471 eV ==== 
     psi = 0.061*[# 116]+0.061*[# 124]+0.061*[# 132]+0.061*[# 140]+0.061*[# 174]
          +0.061*[# 178]+0.061*[# 190]+0.061*[# 194]+0.059*[# 120]+0.059*[# 128]
          +0.059*[# 136]+0.059*[# 144]+0.059*[# 182]+0.059*[# 186]+0.059*[# 198]
          +0.059*[# 202]+0.002*[#   5]+0.002*[#  14]+0.002*[#  23]+0.002*[#  41]
          +0.002*[#  32]+0.002*[#  50]+0.002*[#  59]+0.002*[#  68]+0.001*[# 115]
          +0.001*[# 119]+0.001*[# 123]+0.001*[# 127]+0.001*[# 131]+0.001*[# 135]
          +0.001*[# 139]+0.001*[# 143]+0.001*[# 175]+0.001*[# 179]+0.001*[# 183]
          +0.001*[# 187]+0.001*[# 191]+0.001*[# 195]+0.001*[# 199]+0.001*[# 203]
          
    |psi|^2 = 0.993
==== e( 134) =     1.47182 eV ==== 
     psi = 0.090*[# 115]+0.090*[# 123]+0.090*[# 131]+0.090*[# 139]+0.090*[# 175]
          +0.090*[# 179]+0.090*[# 191]+0.090*[# 195]+0.032*[# 119]+0.032*[# 127]
          +0.032*[# 135]+0.032*[# 143]+0.032*[# 183]+0.032*[# 187]+0.032*[# 199]
          +0.032*[# 203]
    |psi|^2 = 0.985
==== e( 135) =     1.47287 eV ==== 
     psi = 0.090*[# 120]+0.090*[# 128]+0.090*[# 136]+0.090*[# 144]+0.090*[# 182]
          +0.090*[# 186]+0.090*[# 198]+0.090*[# 202]+0.051*[# 163]+0.051*[# 167]
          +0.049*[# 151]+0.049*[# 155]+0.006*[# 116]+0.006*[# 124]+0.006*[# 132]
          +0.006*[# 140]+0.006*[# 174]+0.006*[# 178]+0.006*[# 190]+0.006*[# 194]
          +0.002*[#  17]+0.002*[#  23]+0.002*[#  32]+0.002*[#  53]+0.002*[#  59]
          +0.002*[#  68]
    |psi|^2 = 0.993
==== e( 136) =     1.49679 eV ==== 
     psi = 0.058*[# 115]+0.058*[# 123]+0.058*[# 131]+0.058*[# 139]+0.058*[# 175]
          +0.058*[# 179]+0.058*[# 191]+0.058*[# 195]+0.057*[# 119]+0.057*[# 127]
          +0.057*[# 135]+0.057*[# 143]+0.057*[# 183]+0.057*[# 187]+0.057*[# 199]
          +0.057*[# 203]+0.010*[#  30]+0.010*[#  66]+0.008*[#   3]+0.008*[#  39]
          +0.002*[#  75]+0.002*[#  77]+0.002*[#  80]+0.002*[#  82]+0.002*[#  85]
          +0.002*[#  87]+0.002*[#  90]+0.002*[#  92]+0.002*[#  95]+0.002*[#  97]
          +0.002*[# 100]+0.002*[# 102]+0.002*[# 105]+0.002*[# 107]+0.002*[# 110]
          +0.002*[# 112]
    |psi|^2 = 0.995
==== e( 137) =     1.49688 eV ==== 
     psi = 0.158*[# 152]+0.158*[# 154]+0.116*[# 164]+0.116*[# 166]+0.075*[# 162]
          +0.075*[# 168]+0.044*[# 158]+0.044*[# 160]+0.015*[# 114]+0.015*[# 122]
          +0.015*[# 130]+0.015*[# 138]+0.015*[# 176]+0.015*[# 180]+0.015*[# 192]
          +0.015*[# 196]+0.003*[# 118]+0.003*[# 126]+0.003*[# 134]+0.003*[# 142]
          +0.003*[# 184]+0.003*[# 188]+0.003*[# 200]+0.003*[# 204]+0.002*[# 120]
          +0.002*[# 128]+0.002*[# 136]+0.002*[# 144]+0.002*[# 182]+0.002*[# 186]
          +0.002*[# 198]+0.002*[# 202]+0.002*[# 116]+0.002*[# 124]+0.002*[# 132]
          +0.002*[# 140]+0.002*[# 174]+0.002*[# 178]+0.002*[# 190]+0.002*[# 194]
          +0.001*[# 146]+0.001*[# 148]+0.001*[# 170]+0.001*[# 172]
    |psi|^2 = 0.988
==== e( 138) =     1.49688 eV ==== 
     psi = 0.158*[# 152]+0.158*[# 154]+0.116*[# 164]+0.116*[# 166]+0.075*[# 162]
          +0.075*[# 168]+0.044*[# 158]+0.044*[# 160]+0.015*[# 114]+0.015*[# 122]
          +0.015*[# 130]+0.015*[# 138]+0.015*[# 176]+0.015*[# 180]+0.015*[# 192]
          +0.015*[# 196]+0.003*[# 118]+0.003*[# 126]+0.003*[# 134]+0.003*[# 142]
          +0.003*[# 184]+0.003*[# 188]+0.003*[# 200]+0.003*[# 204]+0.002*[# 120]
          +0.002*[# 128]+0.002*[# 136]+0.002*[# 144]+0.002*[# 182]+0.002*[# 186]
          +0.002*[# 198]+0.002*[# 202]+0.002*[# 116]+0.002*[# 124]+0.002*[# 132]
          +0.002*[# 140]+0.002*[# 174]+0.002*[# 178]+0.002*[# 190]+0.002*[# 194]
          +0.001*[# 146]+0.001*[# 148]+0.001*[# 170]+0.001*[# 172]
    |psi|^2 = 0.988
==== e( 139) =     1.50853 eV ==== 
     psi = 0.087*[# 119]+0.087*[# 127]+0.087*[# 135]+0.087*[# 143]+0.087*[# 183]
          +0.087*[# 187]+0.087*[# 199]+0.087*[# 203]+0.028*[# 115]+0.028*[# 123]
          +0.028*[# 131]+0.028*[# 139]+0.028*[# 175]+0.028*[# 179]+0.028*[# 191]
          +0.028*[# 195]+0.007*[#  12]+0.007*[#  21]+0.007*[#  48]+0.007*[#  57]
          +0.002*[#  95]+0.002*[#  97]+0.002*[# 100]+0.002*[# 102]+0.002*[# 105]
          +0.002*[# 107]+0.002*[# 110]+0.002*[# 112]+0.001*[#  75]+0.001*[#  77]
          +0.001*[#  80]+0.001*[#  82]+0.001*[#  85]+0.001*[#  87]+0.001*[#  90]
          +0.001*[#  92]+0.001*[# 116]+0.001*[# 124]+0.001*[# 132]+0.001*[# 140]
          +0.001*[# 174]+0.001*[# 178]+0.001*[# 190]+0.001*[# 194]+0.001*[# 120]
          +0.001*[# 128]+0.001*[# 136]+0.001*[# 144]+0.001*[# 182]+0.001*[# 186]
          +0.001*[# 198]+0.001*[# 202]
    |psi|^2 = 0.994
==== e( 140) =     1.50949 eV ==== 
     psi = 0.096*[# 114]+0.096*[# 122]+0.096*[# 130]+0.096*[# 138]+0.096*[# 176]
          +0.096*[# 180]+0.096*[# 192]+0.096*[# 196]+0.008*[# 115]+0.008*[# 123]
          +0.008*[# 131]+0.008*[# 139]+0.008*[# 175]+0.008*[# 179]+0.008*[# 191]
          +0.008*[# 195]+0.007*[# 119]+0.007*[# 127]+0.007*[# 135]+0.007*[# 143]
          +0.007*[# 183]+0.007*[# 187]+0.007*[# 199]+0.007*[# 203]+0.005*[# 118]
          +0.005*[# 126]+0.005*[# 134]+0.005*[# 142]+0.005*[# 184]+0.005*[# 188]
          +0.005*[# 200]+0.005*[# 204]+0.003*[#  76]+0.003*[#  81]+0.003*[#  86]
          +0.003*[#  91]+0.002*[#  96]+0.002*[# 101]+0.002*[# 106]+0.002*[# 111]
[...]
          +0.001*[# 119]+0.001*[# 127]+0.001*[# 135]+0.001*[# 143]+0.001*[# 183]
          +0.001*[# 187]+0.001*[# 199]+0.001*[# 203]
    |psi|^2 = 0.917
==== e( 193) =     9.71575 eV ==== 
     psi = 0.107*[#  13]+0.107*[#  20]+0.107*[#  49]+0.107*[#  56]+0.040*[#  29]
          +0.040*[#  31]+0.040*[#  65]+0.040*[#  67]+0.013*[# 120]+0.013*[# 128]
          +0.013*[# 136]+0.013*[# 144]+0.013*[# 182]+0.013*[# 186]+0.013*[# 198]
          +0.013*[# 202]+0.012*[#  74]+0.012*[#  79]+0.012*[#  84]+0.012*[#  89]
          +0.005*[# 152]+0.005*[# 154]+0.005*[#  28]+0.005*[#  64]+0.002*[#  12]
          +0.002*[#  21]+0.002*[#  48]+0.002*[#  57]+0.002*[#   2]+0.002*[#   4]
          +0.002*[#  38]+0.002*[#  40]+0.002*[# 117]+0.002*[# 125]+0.002*[# 133]
          +0.002*[# 141]+0.002*[# 181]+0.002*[# 185]+0.002*[# 197]+0.002*[# 201]
          +0.001*[# 114]+0.001*[# 122]+0.001*[# 130]+0.001*[# 138]+0.001*[# 176]
          +0.001*[# 180]+0.001*[# 192]+0.001*[# 196]
    |psi|^2 = 0.812
==== e( 194) =     9.95780 eV ==== 
     psi = 0.077*[#   2]+0.077*[#   4]+0.077*[#  38]+0.077*[#  40]+0.075*[#  11]
          +0.075*[#  22]+0.075*[#  47]+0.075*[#  58]+0.017*[#  94]+0.017*[#  99]
          +0.017*[# 104]+0.017*[# 109]+0.013*[# 116]+0.013*[# 124]+0.013*[# 132]
          +0.013*[# 140]+0.013*[# 174]+0.013*[# 178]+0.013*[# 190]+0.013*[# 194]
          +0.004*[# 158]+0.004*[# 160]+0.004*[#   1]+0.004*[#  37]+0.004*[# 162]
          +0.004*[# 168]+0.002*[#  10]+0.002*[#  19]+0.002*[#  46]+0.002*[#  55]
          +0.002*[# 113]+0.002*[# 121]+0.002*[# 129]+0.002*[# 137]+0.002*[# 173]
          +0.002*[# 177]+0.002*[# 189]+0.002*[# 193]
    |psi|^2 = 0.851
==== e( 195) =     9.96636 eV ==== 
     psi = 0.076*[#   2]+0.076*[#   4]+0.076*[#  38]+0.076*[#  40]+0.075*[#  11]
          +0.075*[#  22]+0.075*[#  47]+0.075*[#  58]+0.017*[#  74]+0.017*[#  79]
          +0.017*[#  84]+0.017*[#  89]+0.013*[# 116]+0.013*[# 124]+0.013*[# 132]
          +0.013*[# 140]+0.013*[# 174]+0.013*[# 178]+0.013*[# 190]+0.013*[# 194]
          +0.004*[#   1]+0.004*[#  37]+0.003*[# 150]+0.003*[# 156]+0.003*[# 146]
          +0.003*[# 148]+0.002*[#  10]+0.002*[#  19]+0.002*[#  46]+0.002*[#  55]
          +0.002*[# 113]+0.002*[# 121]+0.002*[# 129]+0.002*[# 137]+0.002*[# 173]
          +0.002*[# 177]+0.002*[# 189]+0.002*[# 193]+0.001*[#  29]+0.001*[#  31]
          +0.001*[#  65]+0.001*[#  67]
    |psi|^2 = 0.844
==== e( 196) =     9.97490 eV ==== 
     psi = 0.077*[#  13]+0.077*[#  20]+0.077*[#  49]+0.077*[#  56]+0.075*[#  29]
          +0.075*[#  31]+0.075*[#  65]+0.075*[#  67]+0.018*[#  94]+0.018*[#  99]
          +0.018*[# 104]+0.018*[# 109]+0.013*[# 120]+0.013*[# 128]+0.013*[# 136]
          +0.013*[# 144]+0.013*[# 182]+0.013*[# 186]+0.013*[# 198]+0.013*[# 202]
          +0.003*[# 164]+0.003*[# 166]+0.003*[#  28]+0.003*[#  64]+0.003*[# 170]
          +0.003*[# 172]+0.002*[#  10]+0.002*[#  19]+0.002*[#  46]+0.002*[#  55]
          +0.002*[# 117]+0.002*[# 125]+0.002*[# 133]+0.002*[# 141]+0.002*[# 181]
          +0.002*[# 185]+0.002*[# 197]+0.002*[# 201]
    |psi|^2 = 0.844
==== e( 197) =    10.64252 eV ==== 
     psi = 0.012*[#  29]+0.012*[#  31]+0.012*[#  65]+0.012*[#  67]+0.007*[#   3]
          +0.007*[#  39]+0.003*[#  12]+0.003*[#  21]+0.003*[#  48]+0.003*[#  57]
          +0.002*[#  11]+0.002*[#  22]+0.002*[#  47]+0.002*[#  58]+0.002*[# 159]
          +0.002*[#  74]+0.002*[#  79]+0.002*[#  84]+0.002*[#  89]+0.001*[# 163]
          +0.001*[# 167]
    |psi|^2 = 0.119
==== e( 198) =    10.72083 eV ==== 
     psi = 0.003*[#  13]+0.003*[#  20]+0.003*[#  49]+0.003*[#  56]+0.003*[#  30]
          +0.003*[#  66]+0.002*[#   2]+0.002*[#   4]+0.002*[#  38]+0.002*[#  40]
          +0.002*[#  12]+0.002*[#  21]+0.002*[#  48]+0.002*[#  57]+0.002*[#  74]
          +0.002*[#  79]+0.002*[#  84]+0.002*[#  89]+0.001*[# 171]
    |psi|^2 = 0.057
==== e( 199) =    10.77324 eV ==== 
     psi = 0.008*[#  94]+0.008*[#  99]+0.008*[# 104]+0.008*[# 109]+0.005*[#   2]
          +0.005*[#   4]+0.005*[#  38]+0.005*[#  40]+0.004*[#  12]+0.004*[#  21]
          +0.004*[#  48]+0.004*[#  57]+0.003*[#  13]+0.003*[#  20]+0.003*[#  49]
          +0.003*[#  56]+0.001*[# 151]+0.001*[# 155]
    |psi|^2 = 0.100
==== e( 200) =    10.78799 eV ==== 
     psi = 0.005*[#   3]+0.005*[#  39]+0.005*[#  94]+0.005*[#  99]+0.005*[# 104]
          +0.005*[# 109]+0.003*[#  11]+0.003*[#  22]+0.003*[#  47]+0.003*[#  58]
          +0.002*[#  12]+0.002*[#  21]+0.002*[#  48]+0.002*[#  57]+0.002*[# 147]
          +0.001*[#  29]+0.001*[#  31]+0.001*[#  65]+0.001*[#  67]
    |psi|^2 = 0.080
==== e( 201) =    10.93651 eV ==== 
     psi = 0.024*[#  74]+0.024*[#  79]+0.024*[#  84]+0.024*[#  89]+0.009*[#  29]
          +0.009*[#  31]+0.009*[#  65]+0.009*[#  67]+0.005*[#  30]+0.005*[#  66]
          +0.002*[#  13]+0.002*[#  20]+0.002*[#  49]+0.002*[#  56]+0.001*[#  28]
          +0.001*[#  64]
    |psi|^2 = 0.175
==== e( 202) =    11.09332 eV ==== 
     psi = 0.006*[#   3]+0.006*[#  39]+0.003*[#  74]+0.003*[#  79]+0.003*[#  84]
          +0.003*[#  89]+0.002*[# 159]+0.001*[#  11]+0.001*[#  22]+0.001*[#  47]
          +0.001*[#  58]+0.001*[#   2]+0.001*[#   4]+0.001*[#  38]+0.001*[#  40]
          
    |psi|^2 = 0.051
==== e( 203) =    11.13884 eV ==== 
     psi = 0.084*[#  94]+0.084*[#  99]+0.084*[# 104]+0.084*[# 109]+0.015*[#  13]
          +0.015*[#  20]+0.015*[#  49]+0.015*[#  56]+0.008*[#  29]+0.008*[#  31]
          +0.008*[#  65]+0.008*[#  67]+0.005*[#  28]+0.005*[#  64]+0.005*[#  12]
          +0.005*[#  21]+0.005*[#  48]+0.005*[#  57]+0.004*[#   2]+0.004*[#   4]
          +0.004*[#  38]+0.004*[#  40]+0.003*[#  30]+0.003*[#  66]+0.002*[# 120]
          +0.002*[# 128]+0.002*[# 136]+0.002*[# 144]+0.002*[# 169]+0.002*[# 182]
          +0.002*[# 186]+0.002*[# 198]+0.002*[# 202]+0.001*[#  10]+0.001*[#  19]
          +0.001*[#  46]+0.001*[#  55]+0.001*[# 151]+0.001*[# 155]
    |psi|^2 = 0.517
==== e( 204) =    11.16221 eV ==== 
     psi = 0.053*[#  74]+0.053*[#  79]+0.053*[#  84]+0.053*[#  89]+0.012*[#  11]
          +0.012*[#  22]+0.012*[#  47]+0.012*[#  58]+0.006*[#   2]+0.006*[#   4]
          +0.006*[#  38]+0.006*[#  40]+0.005*[#  29]+0.005*[#  31]+0.005*[#  65]
          +0.005*[#  67]+0.004*[#   3]+0.004*[#  39]+0.002*[#   1]+0.002*[#  37]
          +0.002*[#  12]+0.002*[#  21]+0.002*[#  48]+0.002*[#  57]+0.001*[# 116]
          +0.001*[# 124]+0.001*[# 132]+0.001*[# 140]+0.001*[# 174]+0.001*[# 178]
          +0.001*[# 190]+0.001*[# 194]+0.001*[# 150]+0.001*[# 156]+0.001*[#  10]
          +0.001*[#  19]+0.001*[#  46]+0.001*[#  55]
    |psi|^2 = 0.350
==== e( 205) =    11.17161 eV ==== 
     psi = 0.075*[#  94]+0.075*[#  99]+0.075*[# 104]+0.075*[# 109]+0.011*[#   3]
          +0.011*[#  39]+0.011*[#  11]+0.011*[#  22]+0.011*[#  47]+0.011*[#  58]
          +0.007*[#   2]+0.007*[#   4]+0.007*[#  38]+0.007*[#  40]+0.005*[#  12]
          +0.005*[#  21]+0.005*[#  48]+0.005*[#  57]+0.004*[#  29]+0.004*[#  31]
          +0.004*[#  65]+0.004*[#  67]+0.003*[#   1]+0.003*[#  37]+0.003*[# 147]
          +0.002*[#  10]+0.002*[#  19]+0.002*[#  46]+0.002*[#  55]+0.002*[# 116]
          +0.002*[# 124]+0.002*[# 132]+0.002*[# 140]+0.002*[# 174]+0.002*[# 178]
          +0.002*[# 190]+0.002*[# 194]
    |psi|^2 = 0.470
==== e( 206) =    11.17715 eV ==== 
     psi = 0.055*[#  74]+0.055*[#  79]+0.055*[#  84]+0.055*[#  89]+0.021*[#  30]
          +0.021*[#  66]+0.009*[#  29]+0.009*[#  31]+0.009*[#  65]+0.009*[#  67]
          +0.008*[#  13]+0.008*[#  20]+0.008*[#  49]+0.008*[#  56]+0.006*[#  12]
          +0.006*[#  21]+0.006*[#  48]+0.006*[#  57]+0.006*[# 171]+0.002*[#   2]
          +0.002*[#   4]+0.002*[#  28]+0.002*[#  38]+0.002*[#  40]+0.002*[#  64]
          +0.002*[# 120]+0.002*[# 128]+0.002*[# 136]+0.002*[# 144]+0.002*[# 163]
          +0.002*[# 167]+0.002*[# 182]+0.002*[# 186]+0.002*[# 198]+0.002*[# 202]
          +0.001*[#  10]+0.001*[#  19]+0.001*[#  46]+0.001*[#  55]
    |psi|^2 = 0.402
==== e( 207) =    11.19602 eV ==== 
     psi = 0.004*[#  13]+0.004*[#  20]+0.004*[#  49]+0.004*[#  56]+0.004*[#  94]
          +0.004*[#  99]+0.004*[# 104]+0.004*[# 109]+0.002*[#   2]+0.002*[#   4]
          +0.002*[#  38]+0.002*[#  40]+0.001*[# 164]+0.001*[# 166]
    |psi|^2 = 0.054
==== e( 208) =    11.21930 eV ==== 
     psi = 0.026*[#  74]+0.026*[#  79]+0.026*[#  84]+0.026*[#  89]+0.005*[#   3]
          +0.005*[#  39]+0.004*[#  11]+0.004*[#  22]+0.004*[#  47]+0.004*[#  58]
          +0.003*[#   2]+0.003*[#   4]+0.003*[#  38]+0.003*[#  40]+0.002*[#  12]
          +0.002*[#  21]+0.002*[#  48]+0.002*[#  57]+0.001*[# 159]+0.001*[#   1]
          +0.001*[#  29]+0.001*[#  31]+0.001*[#  37]+0.001*[#  65]+0.001*[#  67]
          +0.001*[# 146]+0.001*[# 148]
    |psi|^2 = 0.175

Lowdin Charges: 

     Atom #   1: total charge =  12.9203, s =  1.9019, 
     Atom #   1: total charge =  12.9203, p =  1.0203, pz=  0.3396, px=  0.3412, py=  0.3396, 
     Atom #   1: total charge =  12.9203, d =  9.9980, dz2=  1.9991, dxz=  1.9999, dyz=  1.9999, dx2-y2=  1.9991, dxy=  1.9999, 
     Atom #   2: total charge =  12.9173, s =  1.9033, 
     Atom #   2: total charge =  12.9173, p =  1.0159, pz=  0.3381, px=  0.3407, py=  0.3372, 
     Atom #   2: total charge =  12.9173, d =  9.9981, dz2=  1.9992, dxz=  1.9999, dyz=  1.9999, dx2-y2=  1.9991, dxy=  1.9999, 
     Atom #   3: total charge =  12.9173, s =  1.9033, 
     Atom #   3: total charge =  12.9173, p =  1.0159, pz=  0.3372, px=  0.3407, py=  0.3381, 
     Atom #   3: total charge =  12.9173, d =  9.9981, dz2=  1.9991, dxz=  1.9999, dyz=  1.9999, dx2-y2=  1.9992, dxy=  1.9999, 
     Atom #   4: total charge =  13.1886, s =  1.8917, 
     Atom #   4: total charge =  13.1886, p =  1.2988, pz=  0.3266, px=  0.6457, py=  0.3266, 
     Atom #   4: total charge =  13.1886, d =  9.9980, dz2=  1.9992, dxz=  1.9999, dyz=  1.9999, dx2-y2=  1.9992, dxy=  1.9999, 
     Atom #   5: total charge =  12.9203, s =  1.9019, 
     Atom #   5: total charge =  12.9203, p =  1.0203, pz=  0.3396, px=  0.3412, py=  0.3396, 
     Atom #   5: total charge =  12.9203, d =  9.9980, dz2=  1.9991, dxz=  1.9999, dyz=  1.9999, dx2-y2=  1.9991, dxy=  1.9999, 
     Atom #   6: total charge =  12.9173, s =  1.9033, 
     Atom #   6: total charge =  12.9173, p =  1.0159, pz=  0.3381, px=  0.3407, py=  0.3372, 
     Atom #   6: total charge =  12.9173, d =  9.9981, dz2=  1.9992, dxz=  1.9999, dyz=  1.9999, dx2-y2=  1.9991, dxy=  1.9999, 
     Atom #   7: total charge =  12.9173, s =  1.9033, 
     Atom #   7: total charge =  12.9173, p =  1.0159, pz=  0.3372, px=  0.3407, py=  0.3381, 
     Atom #   7: total charge =  12.9173, d =  9.9981, dz2=  1.9991, dxz=  1.9999, dyz=  1.9999, dx2-y2=  1.9992, dxy=  1.9999, 
     Atom #   8: total charge =  13.1886, s =  1.8917, 
     Atom #   8: total charge =  13.1886, p =  1.2988, pz=  0.3266, px=  0.6457, py=  0.3266, 
     Atom #   8: total charge =  13.1886, d =  9.9980, dz2=  1.9992, dxz=  1.9999, dyz=  1.9999, dx2-y2=  1.9992, dxy=  1.9999, 
     Atom #   9: total charge =   8.1387, s =  2.1896, 
     Atom #   9: total charge =   8.1387, p =  5.9490, pz=  1.9830, px=  1.9831, py=  1.9830, 
     Atom #   9: total charge =   8.1387, d =  0.0000, dz2=  0.0000, dxz=  0.0000, dyz=  0.0000, dx2-y2=  0.0000, dxy=  0.0000, 
     Atom #  10: total charge =   8.1387, s =  2.1896, 
     Atom #  10: total charge =   8.1387, p =  5.9490, pz=  1.9830, px=  1.9831, py=  1.9830, 
     Atom #  10: total charge =   8.1387, d =  0.0000, dz2=  0.0000, dxz=  0.0000, dyz=  0.0000, dx2-y2=  0.0000, dxy=  0.0000, 
     Atom #  11: total charge =   8.1387, s =  2.1896, 
     Atom #  11: total charge =   8.1387, p =  5.9490, pz=  1.9830, px=  1.9831, py=  1.9830, 
     Atom #  11: total charge =   8.1387, d =  0.0000, dz2=  0.0000, dxz=  0.0000, dyz=  0.0000, dx2-y2=  0.0000, dxy=  0.0000, 
     Atom #  12: total charge =   8.1387, s =  2.1896, 
     Atom #  12: total charge =   8.1387, p =  5.9490, pz=  1.9830, px=  1.9831, py=  1.9830, 
     Atom #  12: total charge =   8.1387, d =  0.0000, dz2=  0.0000, dxz=  0.0000, dyz=  0.0000, dx2-y2=  0.0000, dxy=  0.0000, 
     Atom #  13: total charge =   8.1277, s =  2.1777, 
     Atom #  13: total charge =   8.1277, p =  5.9500, pz=  1.9835, px=  1.9830, py=  1.9835, 
     Atom #  13: total charge =   8.1277, d =  0.0000, dz2=  0.0000, dxz=  0.0000, dyz=  0.0000, dx2-y2=  0.0000, dxy=  0.0000, 
     Atom #  14: total charge =   8.1277, s =  2.1777, 
     Atom #  14: total charge =   8.1277, p =  5.9500, pz=  1.9835, px=  1.9830, py=  1.9835, 
     Atom #  14: total charge =   8.1277, d =  0.0000, dz2=  0.0000, dxz=  0.0000, dyz=  0.0000, dx2-y2=  0.0000, dxy=  0.0000, 
     Atom #  15: total charge =   8.1277, s =  2.1777, 
     Atom #  15: total charge =   8.1277, p =  5.9500, pz=  1.9835, px=  1.9830, py=  1.9835, 
     Atom #  15: total charge =   8.1277, d =  0.0000, dz2=  0.0000, dxz=  0.0000, dyz=  0.0000, dx2-y2=  0.0000, dxy=  0.0000, 
     Atom #  16: total charge =   8.1277, s =  2.1777, 
     Atom #  16: total charge =   8.1277, p =  5.9500, pz=  1.9835, px=  1.9830, py=  1.9835, 
     Atom #  16: total charge =   8.1277, d =  0.0000, dz2=  0.0000, dxz=  0.0000, dyz=  0.0000, dx2-y2=  0.0000, dxy=  0.0000, 
     Atom #  17: total charge =   7.6030, s =  1.9219, 
     Atom #  17: total charge =   7.6030, p =  5.6811, pz=  1.9391, px=  1.9389, py=  1.8032, 
     Atom #  17: total charge =   7.6030, d =  0.0000, dz2=  0.0000, dxz=  0.0000, dyz=  0.0000, dx2-y2=  0.0000, dxy=  0.0000, 
     Atom #  18: total charge =   7.6008, s =  1.9218, 
     Atom #  18: total charge =   7.6008, p =  5.6790, pz=  1.9387, px=  1.9402, py=  1.8002, 
     Atom #  18: total charge =   7.6008, d =  0.0000, dz2=  0.0000, dxz=  0.0000, dyz=  0.0000, dx2-y2=  0.0000, dxy=  0.0000, 
     Atom #  19: total charge =   7.6030, s =  1.9219, 
     Atom #  19: total charge =   7.6030, p =  5.6811, pz=  1.9391, px=  1.9389, py=  1.8032, 
     Atom #  19: total charge =   7.6030, d =  0.0000, dz2=  0.0000, dxz=  0.0000, dyz=  0.0000, dx2-y2=  0.0000, dxy=  0.0000, 
     Atom #  20: total charge =   7.6008, s =  1.9218, 
     Atom #  20: total charge =   7.6008, p =  5.6790, pz=  1.9387, px=  1.9402, py=  1.8002, 
     Atom #  20: total charge =   7.6008, d =  0.0000, dz2=  0.0000, dxz=  0.0000, dyz=  0.0000, dx2-y2=  0.0000, dxy=  0.0000, 
     Atom #  21: total charge =   7.6030, s =  1.9219, 
     Atom #  21: total charge =   7.6030, p =  5.6811, pz=  1.9391, px=  1.9389, py=  1.8032, 
     Atom #  21: total charge =   7.6030, d =  0.0000, dz2=  0.0000, dxz=  0.0000, dyz=  0.0000, dx2-y2=  0.0000, dxy=  0.0000, 
     Atom #  22: total charge =   7.6008, s =  1.9218, 
     Atom #  22: total charge =   7.6008, p =  5.6790, pz=  1.9387, px=  1.9402, py=  1.8002, 
     Atom #  22: total charge =   7.6008, d =  0.0000, dz2=  0.0000, dxz=  0.0000, dyz=  0.0000, dx2-y2=  0.0000, dxy=  0.0000, 
     Atom #  23: total charge =   7.6030, s =  1.9219, 
     Atom #  23: total charge =   7.6030, p =  5.6811, pz=  1.9391, px=  1.9389, py=  1.8032, 
     Atom #  23: total charge =   7.6030, d =  0.0000, dz2=  0.0000, dxz=  0.0000, dyz=  0.0000, dx2-y2=  0.0000, dxy=  0.0000, 
     Atom #  24: total charge =   7.6008, s =  1.9218, 
     Atom #  24: total charge =   7.6008, p =  5.6790, pz=  1.9387, px=  1.9402, py=  1.8002, 
     Atom #  24: total charge =   7.6008, d =  0.0000, dz2=  0.0000, dxz=  0.0000, dyz=  0.0000, dx2-y2=  0.0000, dxy=  0.0000, 
     Atom #  25: total charge =   7.6135, s =  1.9244, 
     Atom #  25: total charge =   7.6135, p =  5.6891, pz=  1.9400, px=  1.8092, py=  1.9400, 
     Atom #  25: total charge =   7.6135, d =  0.0000, dz2=  0.0000, dxz=  0.0000, dyz=  0.0000, dx2-y2=  0.0000, dxy=  0.0000, 
     Atom #  26: total charge =   7.6018, s =  1.9215, 
     Atom #  26: total charge =   7.6018, p =  5.6803, pz=  1.9387, px=  1.8027, py=  1.9388, 
     Atom #  26: total charge =   7.6018, d =  0.0000, dz2=  0.0000, dxz=  0.0000, dyz=  0.0000, dx2-y2=  0.0000, dxy=  0.0000, 
     Atom #  27: total charge =   7.6018, s =  1.9215, 
     Atom #  27: total charge =   7.6018, p =  5.6803, pz=  1.9388, px=  1.8027, py=  1.9387, 
     Atom #  27: total charge =   7.6018, d =  0.0000, dz2=  0.0000, dxz=  0.0000, dyz=  0.0000, dx2-y2=  0.0000, dxy=  0.0000, 
     Atom #  28: total charge =   7.5929, s =  1.9194, 
     Atom #  28: total charge =   7.5929, p =  5.6735, pz=  1.9379, px=  1.7977, py=  1.9379, 
     Atom #  28: total charge =   7.5929, d =  0.0000, dz2=  0.0000, dxz=  0.0000, dyz=  0.0000, dx2-y2=  0.0000, dxy=  0.0000, 
     Atom #  29: total charge =   7.6034, s =  1.9224, 
     Atom #  29: total charge =   7.6034, p =  5.6810, pz=  1.9388, px=  1.8032, py=  1.9391, 
     Atom #  29: total charge =   7.6034, d =  0.0000, dz2=  0.0000, dxz=  0.0000, dyz=  0.0000, dx2-y2=  0.0000, dxy=  0.0000, 
     Atom #  30: total charge =   7.6034, s =  1.9224, 
     Atom #  30: total charge =   7.6034, p =  5.6810, pz=  1.9391, px=  1.8032, py=  1.9388, 
     Atom #  30: total charge =   7.6034, d =  0.0000, dz2=  0.0000, dxz=  0.0000, dyz=  0.0000, dx2-y2=  0.0000, dxy=  0.0000, 
     Atom #  31: total charge =   7.5953, s =  1.9436, 
     Atom #  31: total charge =   7.5953, p =  5.6517, pz=  1.9421, px=  1.7674, py=  1.9421, 
     Atom #  31: total charge =   7.5953, d =  0.0000, dz2=  0.0000, dxz=  0.0000, dyz=  0.0000, dx2-y2=  0.0000, dxy=  0.0000, 
     Atom #  32: total charge =   7.6030, s =  1.9219, 
     Atom #  32: total charge =   7.6030, p =  5.6811, pz=  1.8032, px=  1.9389, py=  1.9391, 
     Atom #  32: total charge =   7.6030, d =  0.0000, dz2=  0.0000, dxz=  0.0000, dyz=  0.0000, dx2-y2=  0.0000, dxy=  0.0000, 
     Atom #  33: total charge =   7.6030, s =  1.9219, 
     Atom #  33: total charge =   7.6030, p =  5.6811, pz=  1.8032, px=  1.9389, py=  1.9391, 
     Atom #  33: total charge =   7.6030, d =  0.0000, dz2=  0.0000, dxz=  0.0000, dyz=  0.0000, dx2-y2=  0.0000, dxy=  0.0000, 
     Atom #  34: total charge =   7.6008, s =  1.9218, 
     Atom #  34: total charge =   7.6008, p =  5.6790, pz=  1.8002, px=  1.9402, py=  1.9387, 
     Atom #  34: total charge =   7.6008, d =  0.0000, dz2=  0.0000, dxz=  0.0000, dyz=  0.0000, dx2-y2=  0.0000, dxy=  0.0000, 
     Atom #  35: total charge =   7.6008, s =  1.9218, 
     Atom #  35: total charge =   7.6008, p =  5.6790, pz=  1.8002, px=  1.9402, py=  1.9387, 
     Atom #  35: total charge =   7.6008, d =  0.0000, dz2=  0.0000, dxz=  0.0000, dyz=  0.0000, dx2-y2=  0.0000, dxy=  0.0000, 
     Atom #  36: total charge =   7.6030, s =  1.9219, 
     Atom #  36: total charge =   7.6030, p =  5.6811, pz=  1.8032, px=  1.9389, py=  1.9391, 
     Atom #  36: total charge =   7.6030, d =  0.0000, dz2=  0.0000, dxz=  0.0000, dyz=  0.0000, dx2-y2=  0.0000, dxy=  0.0000, 
     Atom #  37: total charge =   7.6030, s =  1.9219, 
     Atom #  37: total charge =   7.6030, p =  5.6811, pz=  1.8032, px=  1.9389, py=  1.9391, 
     Atom #  37: total charge =   7.6030, d =  0.0000, dz2=  0.0000, dxz=  0.0000, dyz=  0.0000, dx2-y2=  0.0000, dxy=  0.0000, 
     Atom #  38: total charge =   7.6008, s =  1.9218, 
     Atom #  38: total charge =   7.6008, p =  5.6790, pz=  1.8002, px=  1.9402, py=  1.9387, 
     Atom #  38: total charge =   7.6008, d =  0.0000, dz2=  0.0000, dxz=  0.0000, dyz=  0.0000, dx2-y2=  0.0000, dxy=  0.0000, 
     Atom #  39: total charge =   7.6008, s =  1.9218, 
     Atom #  39: total charge =   7.6008, p =  5.6790, pz=  1.8002, px=  1.9402, py=  1.9387, 
     Atom #  39: total charge =   7.6008, d =  0.0000, dz2=  0.0000, dxz=  0.0000, dyz=  0.0000, dx2-y2=  0.0000, dxy=  0.0000, 
     Spilling Parameter:   0.0035

     PROJWFC      :  23m39.71s CPU  23m52.01s WALL


   This run was terminated on:  20:14:41   1Jul2026            

=------------------------------------------------------------------------------=
   JOB DONE.
=------------------------------------------------------------------------------=
