
     Program PWSCF v.7.2 starts on 21Jun2026 at 12: 0:28 

     This program is part of the open-source Quantum ESPRESSO suite
     for quantum simulation of materials; please cite
         "P. Giannozzi et al., J. Phys.:Condens. Matter 21 395502 (2009);
         "P. Giannozzi et al., J. Phys.:Condens. Matter 29 465901 (2017);
         "P. Giannozzi et al., J. Chem. Phys. 152 154105 (2020);
          URL http://www.quantum-espresso.org", 
     in publications or presentations arising from this work. More details at
     http://www.quantum-espresso.org/quote

     Parallel version (MPI), running on     4 processors

     MPI processes distributed on     1 nodes
     110123 MiB available memory on the printing compute node when the environment starts

     Waiting for input...
     Reading input from standard input

     Current dimensions of program PWSCF are:
     Max number of different atomic species (ntypx) = 10
     Max number of k-points (npk) =  40000
     Max angular momentum in pseudopotentials (lmaxx) =  4

     File ../../tmp/cspbf3_VF.update deleted, as requested

     File ../../tmp/cspbf3_VF.bfgs deleted, as requested
     file Cs.pbe-spn-kjpaw_psl.1.0.0.UPF: wavefunction(s)  5S 6S renormalized
     file Pb.pbe-dn-kjpaw_psl.1.0.0.UPF: wavefunction(s)  6S 6P 5D renormalized
     file F.pbe-n-kjpaw_psl.1.0.0.UPF: wavefunction(s)  2S 2P renormalized

     R & G space division:  proc/nbgrp/npool/nimage =       4
     Subspace diagonalization in iterative solution of the eigenvalue problem:
     one sub-group per band group will be used
     custom distributed-memory algorithm (size of sub-group:  2*  2 procs)


     Parallelization info
     --------------------
     sticks:   dense  smooth     PW     G-vecs:    dense   smooth      PW
     Min        4379    2189    584               436025   154131   21204
     Max        4381    2190    585               436026   154132   21207
     Sum       17521    8757   2337              1744101   616525   84823

     Using Slab Decomposition



     bravais-lattice index     =            1
     lattice parameter (alat)  =      18.5470  a.u.
     unit-cell volume          =    6380.0050 (a.u.)^3
     number of atoms/cell      =           39
     number of atomic types    =            3
     number of electrons       =       345.00
     number of Kohn-Sham states=          208
     kinetic-energy cutoff     =      80.0000  Ry
     charge density cutoff     =     640.0000  Ry
     scf convergence threshold =      1.0E-06
     mixing beta               =       0.0500
     number of iterations used =            8  plain     mixing
     Exchange-correlation= SLA  PW   PBX  PBC
                           (   1   4   3   4   0   0   0)

     celldm(1)=  18.547000  celldm(2)=   0.000000  celldm(3)=   0.000000
     celldm(4)=   0.000000  celldm(5)=   0.000000  celldm(6)=   0.000000

     crystal axes: (cart. coord. in units of alat)
               a(1) = (   1.000000   0.000000   0.000000 )  
               a(2) = (   0.000000   1.000000   0.000000 )  
               a(3) = (   0.000000   0.000000   1.000000 )  

     reciprocal axes: (cart. coord. in units 2 pi/alat)
               b(1) = (  1.000000  0.000000  0.000000 )  
               b(2) = (  0.000000  1.000000  0.000000 )  
               b(3) = (  0.000000  0.000000  1.000000 )  


     PseudoPot. # 1 for Cs read from file:
     ../../pseudo/Cs.pbe-spn-kjpaw_psl.1.0.0.UPF
     MD5 check sum: b82c75cc2e1f4ff73b6412cffeb9c584
     Pseudo is Projector augmented-wave + core cor, Zval =  9.0
     Generated using &quot;atomic&quot; code by A. Dal Corso  v.6.4.1
     Shape of augmentation charge: PSQ
     Using radial grid of 1251 points,  9 beta functions with: 
                l(1) =   0
                l(2) =   0
                l(3) =   0
                l(4) =   1
                l(5) =   1
                l(6) =   2
                l(7) =   2
                l(8) =   3
                l(9) =   3
     Q(r) pseudized with 0 coefficients 


     PseudoPot. # 2 for Pb read from file:
     ../../pseudo/Pb.pbe-dn-kjpaw_psl.1.0.0.UPF
     MD5 check sum: 8dd1fa6bc87c0adeb4efb5a3e91ed847
     Pseudo is Projector augmented-wave + core cor, Zval = 14.0
     Generated using &quot;atomic&quot; code by A. Dal Corso  v.6.3
     Shape of augmentation charge: PSQ
     Using radial grid of 1281 points,  6 beta functions with: 
                l(1) =   0
                l(2) =   0
                l(3) =   1
                l(4) =   1
                l(5) =   2
                l(6) =   2
     Q(r) pseudized with 0 coefficients 


     PseudoPot. # 3 for F  read from file:
     ../../pseudo/F.pbe-n-kjpaw_psl.1.0.0.UPF
     MD5 check sum: 66d718ea72839a4268ab2a9540e8cdd4
     Pseudo is Projector augmented-wave + core cor, Zval =  7.0
     Generated using &quot;atomic&quot; code by A. Dal Corso  v.6.3
     Shape of augmentation charge: PSQ
     Using radial grid of 1105 points,  4 beta functions with: 
                l(1) =   0
                l(2) =   0
                l(3) =   1
                l(4) =   1
     Q(r) pseudized with 0 coefficients 


     atomic species   valence    mass     pseudopotential
        Cs             9.00   132.91000     Cs( 1.00)
        Pb            14.00   207.20000     Pb( 1.00)
        F              7.00    18.99800     F ( 1.00)

     16 Sym. Ops., with inversion, found ( 8 have fractional translation)



   Cartesian axes

     site n.     atom                  positions (alat units)
         1           Pb  tau(   1) = (  -0.0030569  -0.0000000  -0.0000000  )
         2           Pb  tau(   2) = (   0.0004063   0.0000000   0.5000000  )
         3           Pb  tau(   3) = (   0.0004063   0.5000000   0.0000000  )
         4           Pb  tau(   4) = (   0.0052368   0.5000000   0.5000000  )
         5           Pb  tau(   5) = (   0.5030569   0.0000000   0.0000000  )
         6           Pb  tau(   6) = (   0.4995937   0.0000000   0.5000000  )
         7           Pb  tau(   7) = (   0.4995937   0.5000000   0.0000000  )
         8           Pb  tau(   8) = (   0.4947632   0.5000000   0.5000000  )
         9           Cs  tau(   9) = (   0.2500000   0.2427495   0.2427495  )
        10           Cs  tau(  10) = (   0.2500000   0.2427495   0.7572505  )
        11           Cs  tau(  11) = (   0.2500000   0.7572505   0.2427495  )
        12           Cs  tau(  12) = (   0.2500000   0.7572505   0.7572505  )
        13           Cs  tau(  13) = (   0.7500000   0.2550674   0.2550674  )
        14           Cs  tau(  14) = (   0.7500000   0.2550674   0.7449326  )
        15           Cs  tau(  15) = (   0.7500000   0.7449326   0.2550674  )
        16           Cs  tau(  16) = (   0.7500000   0.7449326   0.7449326  )
        17           F   tau(  17) = (   0.0028605   0.2495178   0.0000000  )
        18           F   tau(  18) = (  -0.0014325   0.2498392   0.5000000  )
        19           F   tau(  19) = (   0.0028605   0.7504822   0.0000000  )
        20           F   tau(  20) = (  -0.0014325   0.7501608   0.5000000  )
        21           F   tau(  21) = (   0.4971395   0.2495178   0.0000000  )
        22           F   tau(  22) = (   0.5014325   0.2498392   0.5000000  )
        23           F   tau(  23) = (   0.4971395   0.7504822   0.0000000  )
        24           F   tau(  24) = (   0.5014325   0.7501608   0.5000000  )
        25           F   tau(  25) = (   0.2500000   0.0000000   0.0000000  )
        26           F   tau(  26) = (   0.2500000   0.0000000   0.5000000  )
        27           F   tau(  27) = (   0.2500000   0.5000000   0.0000000  )
        28           F   tau(  28) = (   0.7500000   0.0000000   0.0000000  )
        29           F   tau(  29) = (   0.7500000   0.0000000   0.5000000  )
        30           F   tau(  30) = (   0.7500000   0.5000000   0.0000000  )
        31           F   tau(  31) = (   0.7500000   0.5000000   0.5000000  )
        32           F   tau(  32) = (   0.0028605   0.0000000   0.2495178  )
        33           F   tau(  33) = (   0.0028605   0.0000000   0.7504822  )
        34           F   tau(  34) = (  -0.0014325   0.5000000   0.2498392  )
        35           F   tau(  35) = (  -0.0014325   0.5000000   0.7501608  )
        36           F   tau(  36) = (   0.4971395   0.0000000   0.2495178  )
        37           F   tau(  37) = (   0.4971395   0.0000000   0.7504822  )
        38           F   tau(  38) = (   0.5014325   0.5000000   0.2498392  )
        39           F   tau(  39) = (   0.5014325   0.5000000   0.7501608  )

     number of k points=    18  Gaussian smearing, width (Ry)=  0.0300
                       cart. coord. in units 2pi/alat
        k(    1) = (   0.0000000   0.0000000   0.0000000), wk =   0.0312500
        k(    2) = (   0.0000000   0.0000000   0.2500000), wk =   0.1250000
        k(    3) = (   0.0000000   0.0000000  -0.5000000), wk =   0.0625000
        k(    4) = (   0.0000000   0.2500000   0.2500000), wk =   0.1250000
        k(    5) = (   0.0000000   0.2500000  -0.5000000), wk =   0.1250000
        k(    6) = (   0.0000000  -0.5000000  -0.5000000), wk =   0.0312500
        k(    7) = (   0.2500000   0.2500000   0.2500000), wk =   0.2500000
        k(    8) = (   0.2500000   0.2500000  -0.5000000), wk =   0.2500000
        k(    9) = (   0.2500000  -0.5000000  -0.5000000), wk =   0.0625000
        k(   10) = (  -0.5000000  -0.5000000  -0.5000000), wk =   0.0312500
        k(   11) = (   0.2500000   0.0000000   0.0000000), wk =   0.0625000
        k(   12) = (  -0.5000000   0.0000000   0.0000000), wk =   0.0312500
        k(   13) = (   0.2500000   0.2500000   0.0000000), wk =   0.2500000
        k(   14) = (   0.2500000  -0.5000000   0.0000000), wk =   0.1250000
        k(   15) = (  -0.5000000   0.0000000   0.2500000), wk =   0.1250000
        k(   16) = (  -0.5000000  -0.5000000   0.0000000), wk =   0.0625000
        k(   17) = (  -0.5000000   0.2500000   0.2500000), wk =   0.1250000
        k(   18) = (  -0.5000000  -0.5000000   0.2500000), wk =   0.1250000

     Dense  grid:  1744101 G-vectors     FFT dimensions: ( 150, 150, 150)

     Smooth grid:   616525 G-vectors     FFT dimensions: ( 108, 108, 108)

     Estimated max dynamical RAM per process >       5.55 GB

     Estimated total dynamical RAM >      22.20 GB

     Initial potential from superposition of free atoms

     starting charge     344.6643, renormalised to     345.0000
     Starting wfcs are  204 randomized atomic wfcs +    4 random wfcs
     Checking if some PAW data can be deallocated... 

     total cpu time spent up to now is      540.5 secs

     Self-consistent Calculation

     iteration #  1     ecut=    80.00 Ry     beta= 0.05
     Davidson diagonalization with overlap
     ethr =  1.00E-02,  avg # of iterations =  7.0

     total cpu time spent up to now is     2273.2 secs

     total energy              =  -11660.53852393 Ry
     estimated scf accuracy    <       6.37755913 Ry

     iteration #  2     ecut=    80.00 Ry     beta= 0.05
     Davidson diagonalization with overlap
     ethr =  1.85E-03,  avg # of iterations =  1.6

     total cpu time spent up to now is     3805.0 secs

     total energy              =  -11658.52839440 Ry
     estimated scf accuracy    <       4.62089535 Ry

     iteration #  3     ecut=    80.00 Ry     beta= 0.05
     Davidson diagonalization with overlap
     ethr =  1.34E-03,  avg # of iterations =  2.4

     total cpu time spent up to now is     5645.7 secs

     total energy              =  -11659.35752011 Ry
     estimated scf accuracy    <       0.26176716 Ry

     iteration #  4     ecut=    80.00 Ry     beta= 0.05
     Davidson diagonalization with overlap
     c_bands:  1 eigenvalues not converged
     c_bands:  1 eigenvalues not converged
     c_bands:  1 eigenvalues not converged
     c_bands:  1 eigenvalues not converged
     c_bands:  3 eigenvalues not converged
     c_bands:  1 eigenvalues not converged
     ethr =  7.59E-05,  avg # of iterations = 18.8

     total cpu time spent up to now is     8559.0 secs

     total energy              =  -11659.35451494 Ry
     estimated scf accuracy    <       0.18421543 Ry

     iteration #  5     ecut=    80.00 Ry     beta= 0.05
     Davidson diagonalization with overlap
     ethr =  5.34E-05,  avg # of iterations =  3.3

     total cpu time spent up to now is    10384.4 secs

     total energy              =  -11659.35543116 Ry
     estimated scf accuracy    <       0.09032525 Ry

     iteration #  6     ecut=    80.00 Ry     beta= 0.05
     Davidson diagonalization with overlap
     c_bands:  2 eigenvalues not converged
     ethr =  2.62E-05,  avg # of iterations =  4.3

     total cpu time spent up to now is    12162.4 secs

     total energy              =  -11659.37055741 Ry
     estimated scf accuracy    <       0.01202241 Ry

     iteration #  7     ecut=    80.00 Ry     beta= 0.05
     Davidson diagonalization with overlap
     c_bands:  3 eigenvalues not converged
     c_bands:  1 eigenvalues not converged
     c_bands:  1 eigenvalues not converged
     c_bands:  1 eigenvalues not converged
     c_bands:  1 eigenvalues not converged
     c_bands:  3 eigenvalues not converged
     c_bands:  2 eigenvalues not converged
     c_bands:  2 eigenvalues not converged
     c_bands:  2 eigenvalues not converged
     c_bands:  2 eigenvalues not converged
     ethr =  3.48E-06,  avg # of iterations = 18.5

     total cpu time spent up to now is    14879.1 secs

     total energy              =  -11659.37616629 Ry
     estimated scf accuracy    <       0.03250095 Ry

     iteration #  8     ecut=    80.00 Ry     beta= 0.05
     Davidson diagonalization with overlap
     c_bands:  3 eigenvalues not converged
     c_bands:  1 eigenvalues not converged
     ethr =  3.48E-06,  avg # of iterations =  6.2

     total cpu time spent up to now is    16423.2 secs

     total energy              =  -11659.37650215 Ry
     estimated scf accuracy    <       0.02205653 Ry

     iteration #  9     ecut=    80.00 Ry     beta= 0.05
     Davidson diagonalization with overlap
     ethr =  3.48E-06,  avg # of iterations =  1.9

     total cpu time spent up to now is    17808.0 secs

     total energy              =  -11659.37695465 Ry
     estimated scf accuracy    <       0.02201595 Ry

     iteration # 10     ecut=    80.00 Ry     beta= 0.05
     Davidson diagonalization with overlap
     ethr =  3.48E-06,  avg # of iterations =  1.0

     total cpu time spent up to now is    19229.2 secs

     total energy              =  -11659.37092562 Ry
     estimated scf accuracy    <       0.02098911 Ry

     iteration # 11     ecut=    80.00 Ry     beta= 0.05
     Davidson diagonalization with overlap
     ethr =  3.48E-06,  avg # of iterations =  2.0

     total cpu time spent up to now is    20930.5 secs

     total energy              =  -11659.37337243 Ry
     estimated scf accuracy    <       0.00067516 Ry

     iteration # 12     ecut=    80.00 Ry     beta= 0.05
     Davidson diagonalization with overlap
     c_bands:  1 eigenvalues not converged
     c_bands:  1 eigenvalues not converged
     ethr =  1.96E-07,  avg # of iterations =  7.8

     total cpu time spent up to now is    23233.1 secs

     total energy              =  -11659.37367839 Ry
     estimated scf accuracy    <       0.00042528 Ry

     iteration # 13     ecut=    80.00 Ry     beta= 0.05
     Davidson diagonalization with overlap
     ethr =  1.23E-07,  avg # of iterations =  2.0

     total cpu time spent up to now is    24847.9 secs

     total energy              =  -11659.37367267 Ry
     estimated scf accuracy    <       0.00032650 Ry

     iteration # 14     ecut=    80.00 Ry     beta= 0.05
     Davidson diagonalization with overlap
     ethr =  9.46E-08,  avg # of iterations =  2.0

     total cpu time spent up to now is    26591.4 secs

     total energy              =  -11659.37380482 Ry
     estimated scf accuracy    <       0.00023573 Ry

     iteration # 15     ecut=    80.00 Ry     beta= 0.05
     Davidson diagonalization with overlap
     ethr =  6.83E-08,  avg # of iterations =  3.2

     total cpu time spent up to now is    28276.4 secs

     total energy              =  -11659.37365320 Ry
     estimated scf accuracy    <       0.00054181 Ry

     iteration # 16     ecut=    80.00 Ry     beta= 0.05
     Davidson diagonalization with overlap
     ethr =  6.83E-08,  avg # of iterations =  2.0

     total cpu time spent up to now is    30002.0 secs

     total energy              =  -11659.37370467 Ry
     estimated scf accuracy    <       0.00003863 Ry

     iteration # 17     ecut=    80.00 Ry     beta= 0.05
     Davidson diagonalization with overlap
     ethr =  1.12E-08,  avg # of iterations =  4.3

     total cpu time spent up to now is    32013.0 secs

     total energy              =  -11659.37372223 Ry
     estimated scf accuracy    <       0.00002734 Ry

     iteration # 18     ecut=    80.00 Ry     beta= 0.05
     Davidson diagonalization with overlap
     ethr =  7.92E-09,  avg # of iterations =  2.0

     total cpu time spent up to now is    33570.1 secs

     total energy              =  -11659.37372803 Ry
     estimated scf accuracy    <       0.00000456 Ry

     iteration # 19     ecut=    80.00 Ry     beta= 0.05
     Davidson diagonalization with overlap
     ethr =  1.32E-09,  avg # of iterations =  2.1

     total cpu time spent up to now is    35211.0 secs

     total energy              =  -11659.37373253 Ry
     estimated scf accuracy    <       0.00000255 Ry

     iteration # 20     ecut=    80.00 Ry     beta= 0.05
     Davidson diagonalization with overlap
     ethr =  7.40E-10,  avg # of iterations =  2.0

     total cpu time spent up to now is    36782.3 secs

     total energy              =  -11659.37373524 Ry
     estimated scf accuracy    <       0.00000314 Ry

     iteration # 21     ecut=    80.00 Ry     beta= 0.05
     Davidson diagonalization with overlap
     ethr =  7.40E-10,  avg # of iterations =  3.6

     total cpu time spent up to now is    38646.4 secs

     End of self-consistent calculation

          k = 0.0000 0.0000 0.0000 ( 77053 PWs)   bands (ev):

   -17.3152 -17.2587 -17.2430 -17.2402 -17.1975 -17.1973 -17.1933 -17.1838
   -17.1685 -17.1534 -17.1531 -17.1410 -17.1410 -17.1316 -17.1316 -17.1171
   -17.1171 -17.1156 -17.1118 -17.1118 -17.1087 -17.0925 -17.0177 -16.1258
   -16.1258 -16.1250 -16.1154 -16.0625 -16.0625 -16.0607 -16.0492 -11.1608
   -11.1579 -11.1555 -11.1542 -11.1251 -11.1126 -11.1126 -11.1111 -11.1101
   -11.1100 -11.1100 -11.1090 -11.1086 -11.1062 -11.1062 -11.1038 -11.1038
   -11.0965 -11.0965 -11.0920 -11.0918 -11.0901 -11.0901 -11.0816 -11.0816
   -11.0799 -11.0640 -11.0570 -11.0570 -11.0533 -11.0533 -11.0421 -10.9870
   -10.9696 -10.9592 -10.8964 -10.8767 -10.8722 -10.8716 -10.8706  -3.6997
    -3.1908  -3.1326  -3.1196  -3.1142  -3.1025  -3.1025  -3.1020  -3.0799
    -3.0417  -3.0417  -3.0330  -3.0229  -3.0229  -3.0217  -2.9427  -2.9357
    -2.9357  -2.8987  -2.8793  -2.8630  -2.8458  -2.8458  -2.8366  -2.8366
    -2.8034  -2.7906  -2.7840  -2.1830  -2.1336  -2.0086  -1.1248   0.0271
     0.0325   0.0325   0.0401   0.0425   0.0425   0.0720   0.0720   0.1144
     0.1587   0.1587   0.9237   1.0801   1.1043   1.1043   1.1414   1.1825
     1.1825   1.4013   1.4046   1.4046   1.4474   1.4474   1.4555   1.4555
     1.4571   1.4591   1.4612   1.4613   1.4647   1.4718   1.4729   1.4968
     1.4969   1.4969   1.5085   1.5095   1.5095   1.5155   1.5210   1.5210
     1.5250   1.5250   1.5264   1.5398   1.5398   1.5585   1.5709   1.5737
     1.5737   1.5737   1.6015   1.6015   1.6435   1.6490   1.6490   1.8012
     1.8012   1.8024   1.8024   1.8086   1.8137   2.5067   2.8252   2.8786
     3.5382   3.8117   3.8587   4.5990   6.5417   7.6924   7.6924   7.8563
     7.8947   7.8947   8.2855   8.4574   8.4574   8.5473   8.5598   8.5598
     9.1217   9.3964   9.7783   9.7871   9.9230   9.9230  10.2230  10.2230
    10.2233  10.3362  10.3362  10.3782  10.3827  10.5085  10.5085  10.5308
    10.5308  10.6003  10.8587  10.8632  10.9430  10.9430  10.9894  11.0210

          k = 0.0000 0.0000 0.2500 ( 77165 PWs)   bands (ev):

   -17.3081 -17.2585 -17.2447 -17.2324 -17.1988 -17.1953 -17.1850 -17.1842
   -17.1667 -17.1512 -17.1508 -17.1454 -17.1403 -17.1401 -17.1316 -17.1275
   -17.1211 -17.1179 -17.1130 -17.1118 -17.1090 -17.0921 -17.0173 -16.1256
   -16.1249 -16.1247 -16.1164 -16.0623 -16.0611 -16.0607 -16.0510 -11.1591
   -11.1491 -11.1368 -11.1320 -11.1157 -11.1125 -11.1122 -11.1105 -11.1100
   -11.1100 -11.1097 -11.1090 -11.1087 -11.1062 -11.1059 -11.1038 -11.1037
   -11.0969 -11.0965 -11.0922 -11.0921 -11.0904 -11.0901 -11.0818 -11.0818
   -11.0799 -11.0572 -11.0570 -11.0534 -11.0533 -11.0461 -11.0411 -10.9877
   -10.9786 -10.9578 -10.9107 -10.8996 -10.8922 -10.8812 -10.8736  -3.6285
    -3.1898  -3.1880  -3.1440  -3.1237  -3.1020  -3.0744  -3.0723  -3.0709
    -3.0541  -3.0473  -3.0359  -3.0050  -2.9939  -2.9628  -2.9290  -2.9275
    -2.9127  -2.9023  -2.8780  -2.8684  -2.8654  -2.8398  -2.8365  -2.8300
    -2.8259  -2.8097  -2.7943  -2.3455  -2.2049  -2.0782  -1.4302   0.0273
     0.0333   0.0488   0.0582   0.0726   0.1034   0.1414   0.3283   0.3325
     0.3883   0.4781   0.9183   1.0949   1.1071   1.1427   1.1460   1.1756
     1.1762   1.2851   1.2889   1.3414   1.3712   1.4003   1.4016   1.4220
     1.4382   1.4393   1.4579   1.4674   1.4690   1.4747   1.4754   1.4854
     1.4924   1.4970   1.5097   1.5123   1.5181   1.5209   1.5286   1.5317
     1.5350   1.5459   1.5483   1.5571   1.5579   1.5757   1.5781   1.5855
     1.5864   1.6017   1.6240   1.6302   1.6333   1.6420   1.6816   1.7659
     1.7763   1.7815   1.7816   1.8012   1.8021   2.5376   2.5422   2.9303
     3.4203   3.5883   3.8295   4.3938   6.5631   7.8024   7.9335   7.9584
     8.0667   8.1380   8.2706   8.3924   8.4093   8.4399   8.7359   8.8536
     9.1295   9.2772   9.7976   9.8100   9.8641   9.9259   9.9822  10.0157
    10.2419  10.2508  10.2715  10.3698  10.4326  10.4451  10.4884  10.5800
    10.6266  10.6903  10.7128  10.8068  10.9986  11.0590  11.1451  11.5250

          k = 0.0000 0.0000-0.5000 ( 76940 PWs)   bands (ev):

   -17.2991 -17.2605 -17.2472 -17.2209 -17.2053 -17.1891 -17.1867 -17.1634
   -17.1606 -17.1603 -17.1562 -17.1441 -17.1418 -17.1408 -17.1393 -17.1373
   -17.1316 -17.1188 -17.1118 -17.1111 -17.1102 -17.0918 -17.0170 -16.1254
   -16.1248 -16.1234 -16.1177 -16.0620 -16.0617 -16.0573 -16.0545 -11.1590
   -11.1441 -11.1125 -11.1120 -11.1101 -11.1100 -11.1095 -11.1093 -11.1092
   -11.1091 -11.1062 -11.1059 -11.1038 -11.1037 -11.1025 -11.1023 -11.1007
   -11.0965 -11.0958 -11.0924 -11.0923 -11.0920 -11.0901 -11.0820 -11.0820
   -11.0804 -11.0670 -11.0572 -11.0570 -11.0533 -11.0527 -11.0183 -10.9749
   -10.9721 -10.9568 -10.9381 -10.9370 -10.9287 -10.8845 -10.8738  -3.4793
    -3.3660  -3.1907  -3.1459  -3.1306  -3.0741  -3.0615  -3.0602  -3.0597
    -3.0474  -3.0402  -3.0270  -3.0174  -2.9531  -2.9425  -2.9333  -2.9255
    -2.9106  -2.8967  -2.8952  -2.8855  -2.8845  -2.8259  -2.8239  -2.8158
    -2.8089  -2.6992  -2.6597  -2.6546  -2.4797  -1.8646  -1.8022   0.0289
     0.0342   0.0666   0.0732   0.0856   0.0895   0.1085   0.7553   0.8459
     0.8580   0.8644   0.8807   0.8848   0.9821   1.0817   1.1153   1.1176
     1.1252   1.1387   1.1664   1.2361   1.3000   1.3979   1.4003   1.4067
     1.4312   1.4388   1.4584   1.4591   1.4811   1.4880   1.4885   1.4907
     1.4918   1.4922   1.5019   1.5057   1.5230   1.5236   1.5251   1.5267
     1.5351   1.5367   1.5500   1.5504   1.5676   1.5726   1.6056   1.6112
     1.6132   1.6268   1.6675   1.6791   1.6850   1.6876   1.7030   1.7074
     1.7128   1.7178   1.8008   1.8011   1.9260   1.9592   2.5991   3.1522
     3.2236   3.2314   3.9085   4.1487   6.5875   8.0514   8.0682   8.0824
     8.0911   8.1947   8.2716   8.2983   8.6165   8.8709   8.8803   8.8917
     9.1366   9.2560   9.4685   9.4824   9.5008  10.0230  10.0434  10.0656
    10.3217  10.3239  10.3432  10.4236  10.4820  10.4942  10.4984  10.5862
    10.6359  10.6593  10.6976  10.6981  11.1718  11.3098  11.3163  11.3357

          k = 0.0000 0.2500 0.2500 ( 77061 PWs)   bands (ev):

   -17.3016 -17.2563 -17.2452 -17.2240 -17.1953 -17.1907 -17.1864 -17.1849
   -17.1656 -17.1501 -17.1491 -17.1482 -17.1442 -17.1420 -17.1370 -17.1314
   -17.1234 -17.1220 -17.1179 -17.1117 -17.1091 -17.0919 -17.0169 -16.1252
   -16.1247 -16.1241 -16.1173 -16.0612 -16.0608 -16.0608 -16.0527 -11.1433
   -11.1426 -11.1163 -11.1156 -11.1125 -11.1122 -11.1120 -11.1101 -11.1100
   -11.1098 -11.1094 -11.1089 -11.1087 -11.1059 -11.1058 -11.1038 -11.1037
   -11.0970 -11.0967 -11.0924 -11.0924 -11.0905 -11.0903 -11.0820 -11.0820
   -11.0601 -11.0571 -11.0550 -11.0535 -11.0533 -11.0461 -11.0407 -10.9854
   -10.9794 -10.9726 -10.9147 -10.9142 -10.9134 -10.8971 -10.8887  -3.5586
    -3.1944  -3.1669  -3.1500  -3.1197  -3.0952  -3.0752  -3.0741  -3.0650
    -3.0293  -3.0134  -3.0039  -3.0007  -2.9897  -2.9576  -2.9522  -2.9244
    -2.9196  -2.9044  -2.8922  -2.8687  -2.8520  -2.8491  -2.8464  -2.8376
    -2.8358  -2.8209  -2.8163  -2.3742  -2.2902  -2.2395  -1.6675   0.0306
     0.0535   0.0946   0.2170   0.2255   0.3267   0.3303   0.3663   0.3676
     0.4391   0.6546   0.9153   1.1040   1.1307   1.1313   1.1488   1.1668
     1.1818   1.2021   1.2307   1.2805   1.3159   1.3387   1.3955   1.4019
     1.4195   1.4336   1.4452   1.4512   1.4634   1.4659   1.4731   1.4748
     1.4836   1.4845   1.4947   1.5069   1.5088   1.5179   1.5435   1.5460
     1.5557   1.5567   1.5649   1.5655   1.5738   1.5907   1.6009   1.6030
     1.6083   1.6226   1.6253   1.6386   1.6437   1.6766   1.6905   1.7542
     1.7544   1.7667   1.7786   1.7807   1.7859   2.5668   2.5992   2.6390
     3.3443   3.4125   3.6999   4.1873   6.5742   7.9941   8.0624   8.1903
     8.2211   8.2730   8.2900   8.3643   8.6093   8.7036   8.7078   8.7650
     9.1321   9.2793   9.7411   9.8070   9.8171   9.8933   9.9035   9.9583
     9.9593  10.2311  10.3011  10.3126  10.3697  10.4441  10.6131  10.6247
    10.6254  10.7260  10.7434  10.8630  10.9143  11.0518  11.4595  11.5657

          k = 0.0000 0.2500-0.5000 ( 77076 PWs)   bands (ev):

   -17.2937 -17.2544 -17.2473 -17.2109 -17.1964 -17.1919 -17.1876 -17.1674
   -17.1627 -17.1606 -17.1582 -17.1478 -17.1448 -17.1404 -17.1386 -17.1372
   -17.1350 -17.1241 -17.1193 -17.1102 -17.1100 -17.0916 -17.0166 -16.1252
   -16.1243 -16.1229 -16.1186 -16.0612 -16.0610 -16.0580 -16.0556 -11.1413
   -11.1308 -11.1124 -11.1117 -11.1103 -11.1097 -11.1092 -11.1090 -11.1090
   -11.1089 -11.1062 -11.1058 -11.1038 -11.1037 -11.1035 -11.0975 -11.0971
   -11.0927 -11.0926 -11.0912 -11.0904 -11.0822 -11.0822 -11.0766 -11.0735
   -11.0688 -11.0594 -11.0570 -11.0568 -11.0532 -11.0517 -11.0184 -10.9799
   -10.9796 -10.9626 -10.9564 -10.9541 -10.9355 -10.9058 -10.8931  -3.4138
    -3.3160  -3.1564  -3.1501  -3.1109  -3.0845  -3.0423  -3.0420  -3.0353
    -3.0314  -3.0302  -3.0220  -3.0053  -2.9675  -2.9449  -2.9433  -2.9369
    -2.9283  -2.9211  -2.9059  -2.8792  -2.8772  -2.8492  -2.8424  -2.8348
    -2.8323  -2.7796  -2.6148  -2.6133  -2.5682  -2.0536  -2.0009   0.0346
     0.0670   0.0786   0.2876   0.3107   0.3193   0.3284   0.7594   0.8094
     0.8388   0.8424   0.8507   0.8947   1.0034   1.0824   1.0844   1.1230
     1.1305   1.1538   1.1753   1.2372   1.2780   1.3005   1.3865   1.3995
     1.4080   1.4352   1.4367   1.4491   1.4536   1.4611   1.4649   1.4715
     1.4817   1.4854   1.4883   1.4958   1.5160   1.5260   1.5279   1.5372
     1.5652   1.5714   1.5764   1.5830   1.5921   1.5978   1.6003   1.6083
     1.6498   1.6527   1.6723   1.6789   1.6849   1.6886   1.7017   1.7081
     1.7149   1.7257   1.7733   1.7782   1.9948   2.0335   2.6045   2.8665
     2.9350   3.3049   3.7248   3.9279   6.5871   8.1121   8.1976   8.2624
     8.3259   8.3822   8.3896   8.5640   8.6969   8.9657   8.9835   9.0301
     9.1616   9.2696   9.3067   9.3357   9.4590   9.7789   9.9388  10.0905
    10.1044  10.1984  10.3255  10.3531  10.4247  10.4788  10.5533  10.6426
    10.7176  10.7687  10.8292  10.8429  11.0999  11.1351  11.1730  11.2386

          k = 0.0000-0.5000-0.5000 ( 77148 PWs)   bands (ev):

   -17.2876 -17.2475 -17.2475 -17.1957 -17.1914 -17.1892 -17.1818 -17.1818
   -17.1694 -17.1611 -17.1611 -17.1500 -17.1488 -17.1389 -17.1389 -17.1366
   -17.1366 -17.1293 -17.1281 -17.1097 -17.1097 -17.0915 -17.0163 -16.1254
   -16.1225 -16.1225 -16.1202 -16.0601 -16.0592 -16.0592 -16.0576 -11.1205
   -11.1205 -11.1124 -11.1115 -11.1104 -11.1095 -11.1088 -11.1088 -11.1088
   -11.1088 -11.1087 -11.1056 -11.1049 -11.1037 -11.1036 -11.0973 -11.0973
   -11.0930 -11.0929 -11.0908 -11.0908 -11.0824 -11.0824 -11.0577 -11.0577
   -11.0540 -11.0540 -11.0263 -11.0263 -11.0261 -11.0261 -11.0235 -11.0101
   -11.0099 -11.0015 -11.0014 -10.9554 -10.9310 -10.9310 -10.9167  -3.2683
    -3.2538  -3.2538  -3.0964  -3.0804  -3.0553  -3.0331  -3.0311  -3.0311
    -3.0044  -3.0044  -2.9793  -2.9692  -2.9692  -2.9623  -2.9611  -2.9406
    -2.9406  -2.9269  -2.9251  -2.9145  -2.9145  -2.9026  -2.8768  -2.8562
    -2.8523  -2.8523  -2.7783  -2.4273  -2.3347  -2.3300  -2.3300   0.0456
     0.0679   0.0679   0.6552   0.6589   0.6719   0.6719   0.6974   0.6974
     0.6974   0.7012   0.7750   1.0206   1.0206   1.0263   1.0466   1.0813
     1.1177   1.1177   1.1839   1.1948   1.2404   1.2404   1.3539   1.3978
     1.4012   1.4193   1.4290   1.4467   1.4467   1.4507   1.4507   1.4542
     1.4610   1.4610   1.4918   1.5063   1.5063   1.5187   1.5313   1.5609
     1.5712   1.5712   1.5845   1.5859   1.6405   1.6452   1.6507   1.6507
     1.6524   1.6581   1.6658   1.6658   1.6950   1.6950   1.6958   1.7043
     1.7287   1.7321   1.7321   1.7402   2.2810   2.3571   2.3571   2.3967
     2.6120   3.5419   3.5419   3.5524   6.5881   8.2006   8.2006   8.2056
     8.7161   8.7161   8.9048   8.9309   8.9309   8.9350   9.0233   9.0419
     9.0911   9.3678   9.3678   9.4795   9.5028   9.5028   9.5120   9.5306
     9.5347  10.4134  10.4255  10.4255  10.4394  10.4395  10.4542  10.5819
    10.7584  10.8858  10.8860  10.9048  11.1661  11.1667  11.1772  11.2697

          k = 0.2500 0.2500 0.2500 ( 77094 PWs)   bands (ev):

   -17.2931 -17.2539 -17.2371 -17.2296 -17.1957 -17.1953 -17.1900 -17.1802
   -17.1648 -17.1509 -17.1487 -17.1478 -17.1458 -17.1414 -17.1377 -17.1316
   -17.1247 -17.1220 -17.1187 -17.1140 -17.1121 -17.0942 -17.0169 -16.1251
   -16.1246 -16.1240 -16.1169 -16.0612 -16.0609 -16.0609 -16.0530 -11.1210
   -11.1184 -11.1162 -11.1147 -11.1112 -11.1111 -11.1099 -11.1095 -11.1092
   -11.1089 -11.1089 -11.1087 -11.1068 -11.1067 -11.1047 -11.1046 -11.0961
   -11.0958 -11.0947 -11.0924 -11.0924 -11.0913 -11.0911 -11.0820 -11.0820
   -11.0626 -11.0567 -11.0556 -11.0538 -11.0538 -11.0472 -11.0353 -10.9942
   -10.9801 -10.9729 -10.9219 -10.9195 -10.9145 -10.9142 -10.9132  -3.4952
    -3.2010  -3.1579  -3.1542  -3.1036  -3.0956  -3.0743  -3.0477  -3.0408
    -3.0240  -3.0196  -3.0121  -3.0025  -2.9545  -2.9528  -2.9322  -2.9253
    -2.9170  -2.9028  -2.9011  -2.8872  -2.8775  -2.8679  -2.8644  -2.8458
    -2.8333  -2.8327  -2.8077  -2.4060  -2.4031  -2.2842  -1.8295   0.2011
     0.2109   0.2213   0.2405   0.2909   0.3507   0.3530   0.3817   0.4184
     0.4431   0.7512   0.8877   1.1238   1.1310   1.1343   1.1491   1.1627
     1.1742   1.1837   1.1985   1.2047   1.2264   1.3023   1.3928   1.4061
     1.4129   1.4177   1.4216   1.4316   1.4415   1.4435   1.4597   1.4673
     1.4754   1.4857   1.4952   1.4966   1.5304   1.5306   1.5376   1.5662
     1.5692   1.5708   1.5803   1.5824   1.6075   1.6075   1.6086   1.6202
     1.6295   1.6306   1.6382   1.6449   1.6464   1.6753   1.7333   1.7426
     1.7460   1.7650   1.7667   1.7671   1.7772   2.4009   2.6614   2.7224
     3.1940   3.4079   3.4533   3.9741   6.8549   8.1298   8.1836   8.2896
     8.2966   8.4086   8.5183   8.5467   8.6122   8.6578   8.6580   8.7176
     8.7337   9.3697   9.6738   9.8119   9.8589   9.8617   9.8712   9.9366
     9.9398  10.0383  10.1568  10.2078  10.4730  10.5357  10.5824  10.6120
    10.7282  10.7971  10.8311  10.8761  10.9010  11.2460  11.3408  11.3591

          k = 0.2500 0.2500-0.5000 ( 77148 PWs)   bands (ev):

   -17.2862 -17.2459 -17.2434 -17.2147 -17.2046 -17.1928 -17.1827 -17.1696
   -17.1657 -17.1601 -17.1571 -17.1484 -17.1453 -17.1402 -17.1380 -17.1377
   -17.1356 -17.1239 -17.1202 -17.1129 -17.1127 -17.0937 -17.0165 -16.1251
   -16.1243 -16.1227 -16.1184 -16.0612 -16.0610 -16.0582 -16.0558 -11.1194
   -11.1115 -11.1108 -11.1094 -11.1092 -11.1091 -11.1090 -11.1089 -11.1088
   -11.1084 -11.1067 -11.1066 -11.1046 -11.1045 -11.0966 -11.0962 -11.0927
   -11.0926 -11.0921 -11.0913 -11.0822 -11.0822 -11.0794 -11.0768 -11.0752
   -11.0636 -11.0566 -11.0563 -11.0559 -11.0537 -11.0497 -11.0205 -10.9853
   -10.9844 -10.9661 -10.9620 -10.9591 -10.9496 -10.9193 -10.9163  -3.3499
    -3.2753  -3.1573  -3.1245  -3.1130  -3.0534  -3.0447  -3.0390  -3.0305
    -3.0295  -3.0210  -3.0044  -2.9818  -2.9620  -2.9560  -2.9441  -2.9326
    -2.9283  -2.9253  -2.9081  -2.9069  -2.9043  -2.8730  -2.8719  -2.8537
    -2.8516  -2.7035  -2.7031  -2.6762  -2.5265  -2.1737  -2.1532   0.2058
     0.2555   0.2892   0.3062   0.3248   0.3567   0.3568   0.7465   0.8133
     0.8287   0.8326   0.8505   0.8586   1.0032   1.0343   1.0827   1.1316
     1.1331   1.1611   1.1643   1.1947   1.2198   1.2518   1.3909   1.4025
     1.4035   1.4069   1.4178   1.4217   1.4344   1.4535   1.4567   1.4627
     1.4664   1.4721   1.4829   1.4914   1.5270   1.5299   1.5395   1.5702
     1.5903   1.5981   1.5985   1.6020   1.6185   1.6186   1.6268   1.6288
     1.6421   1.6567   1.6705   1.6845   1.6888   1.6968   1.7036   1.7124
     1.7127   1.7333   1.7562   1.7692   2.0355   2.1162   2.5018   2.9253
     3.0064   3.0253   3.4993   3.6924   6.8654   8.2777   8.4033   8.4281
     8.4648   8.4997   8.5405   8.5720   8.6022   8.7455   9.0722   9.0891
     9.0978   9.2093   9.3307   9.3418   9.3912   9.7584   9.9032   9.9847
    10.0017  10.0339  10.0501  10.0693  10.4724  10.5083  10.7334  10.7654
    10.8111  10.8348  10.8954  10.9697  11.0732  11.0931  11.2134  11.2543

          k = 0.2500-0.5000-0.5000 ( 77112 PWs)   bands (ev):

   -17.2812 -17.2387 -17.2387 -17.2057 -17.1893 -17.1893 -17.1873 -17.1864
   -17.1714 -17.1597 -17.1597 -17.1499 -17.1490 -17.1392 -17.1392 -17.1366
   -17.1366 -17.1291 -17.1283 -17.1125 -17.1125 -17.0933 -17.0162 -16.1253
   -16.1224 -16.1224 -16.1202 -16.0602 -16.0593 -16.0593 -16.0576 -11.1114
   -11.1106 -11.1094 -11.1088 -11.1088 -11.1088 -11.1088 -11.1087 -11.1066
   -11.1066 -11.1046 -11.1046 -11.0965 -11.0965 -11.0944 -11.0944 -11.0930
   -11.0929 -11.0900 -11.0900 -11.0824 -11.0824 -11.0804 -11.0573 -11.0573
   -11.0544 -11.0544 -11.0263 -11.0263 -11.0263 -11.0261 -11.0261 -11.0100
   -11.0099 -11.0015 -11.0014 -10.9585 -10.9585 -10.9526 -10.9438  -3.2111
    -3.1936  -3.1936  -3.1217  -3.0650  -3.0424  -3.0359  -3.0359  -3.0329
    -3.0081  -3.0081  -2.9810  -2.9810  -2.9779  -2.9624  -2.9554  -2.9547
    -2.9366  -2.9366  -2.9252  -2.8978  -2.8961  -2.8961  -2.8957  -2.8544
    -2.8515  -2.8515  -2.7361  -2.4729  -2.4702  -2.4702  -2.4296   0.2595
     0.2844   0.2844   0.6614   0.6654   0.6738   0.6738   0.6918   0.6953
     0.6964   0.6964   0.7640   0.9432   0.9432   0.9449   1.0466   1.0837
     1.1169   1.1169   1.1601   1.1662   1.2155   1.2155   1.3796   1.4024
     1.4043   1.4120   1.4120   1.4194   1.4263   1.4443   1.4443   1.4444
     1.4603   1.4661   1.4661   1.4817   1.5282   1.5282   1.5286   1.6024
     1.6040   1.6040   1.6200   1.6283   1.6501   1.6587   1.6587   1.6630
     1.6664   1.6746   1.6790   1.6790   1.6892   1.6966   1.6966   1.6988
     1.7168   1.7281   1.7382   1.7382   2.2858   2.4457   2.4457   2.4810
     2.5620   3.2727   3.2727   3.2869   6.8661   8.5200   8.5200   8.5231
     8.6141   8.7245   8.7245   8.9799   9.0076   9.0168   9.0168   9.0919
     9.1089   9.3024   9.3024   9.4165   9.4197   9.4250   9.4301   9.4443
     9.4443   9.9630   9.9631   9.9631  10.6161  10.6161  10.7215  10.7601
    10.9845  11.1121  11.1123  11.1478  11.1617  11.2145  11.2151  11.2495

          k =-0.5000-0.5000-0.5000 ( 77208 PWs)   bands (ev):

   -17.2734 -17.2250 -17.2250 -17.2142 -17.2016 -17.2016 -17.1847 -17.1843
   -17.1742 -17.1583 -17.1583 -17.1495 -17.1493 -17.1397 -17.1397 -17.1365
   -17.1365 -17.1288 -17.1286 -17.1152 -17.1152 -17.0951 -17.0161 -16.1253
   -16.1224 -16.1224 -16.1201 -16.0603 -16.0593 -16.0593 -16.0577 -11.1091
   -11.1089 -11.1088 -11.1088 -11.1088 -11.1088 -11.1087 -11.1085 -11.1071
   -11.1069 -11.1067 -11.1065 -11.0947 -11.0947 -11.0937 -11.0937 -11.0930
   -11.0929 -11.0824 -11.0823 -11.0565 -11.0565 -11.0555 -11.0555 -11.0289
   -11.0283 -11.0283 -11.0269 -11.0269 -11.0259 -11.0249 -11.0249 -11.0225
   -11.0225 -11.0100 -11.0100 -11.0015 -11.0014 -10.9980 -10.9500  -3.1384
    -3.1265  -3.0722  -3.0722  -3.0669  -3.0669  -3.0623  -3.0328  -3.0201
    -3.0201  -2.9891  -2.9808  -2.9808  -2.9763  -2.9696  -2.9640  -2.9592
    -2.9578  -2.9570  -2.9570  -2.9514  -2.9354  -2.9354  -2.9253  -2.7428
    -2.7059  -2.7059  -2.7038  -2.7038  -2.6965  -2.6729  -2.4333   0.5841
     0.6607   0.6607   0.6656   0.6656   0.6730   0.6766   0.6766   0.6805
     0.6807   0.6808   0.7312   0.7312   0.7495   0.7529   1.0490   1.1034
     1.1132   1.1171   1.1171   1.1386   1.1835   1.1835   1.4061   1.4061
     1.4095   1.4110   1.4121   1.4217   1.4220   1.4253   1.4315   1.4315
     1.4428   1.4534   1.4658   1.4658   1.5289   1.5394   1.5394   1.6386
     1.6386   1.6562   1.6572   1.6667   1.6696   1.6765   1.6779   1.6784
     1.6784   1.6795   1.6795   1.6812   1.6849   1.6870   1.6915   1.6915
     1.6915   1.7039   1.7503   1.7503   2.2928   2.5110   2.7680   2.7680
     2.7726   2.7731   2.7731   2.8162   7.3509   7.9890   8.7320   8.7320
     9.1540   9.1592   9.1730   9.1939   9.1939   9.1963   9.1994   9.1994
     9.2078   9.2078   9.2111   9.2337   9.2378   9.2674   9.2674   9.2973
     9.2989   9.3101   9.3101   9.3221  10.9213  10.9213  11.1291  11.1619
    11.1634  11.1638  11.1788  11.1995  11.2253  11.2309  11.3719  11.4372

          k = 0.2500 0.0000 0.0000 ( 77165 PWs)   bands (ev):

   -17.3060 -17.2611 -17.2429 -17.2355 -17.2009 -17.1973 -17.1948 -17.1806
   -17.1677 -17.1544 -17.1527 -17.1396 -17.1396 -17.1327 -17.1327 -17.1193
   -17.1165 -17.1165 -17.1133 -17.1126 -17.1126 -17.0956 -17.0177 -16.1257
   -16.1257 -16.1249 -16.1149 -16.0626 -16.0626 -16.0609 -16.0497 -11.1557
   -11.1555 -11.1391 -11.1352 -11.1116 -11.1116 -11.1109 -11.1107 -11.1102
   -11.1091 -11.1091 -11.1090 -11.1087 -11.1071 -11.1071 -11.1048 -11.1048
   -11.0956 -11.0956 -11.0920 -11.0918 -11.0910 -11.0910 -11.0833 -11.0816
   -11.0816 -11.0717 -11.0565 -11.0565 -11.0538 -11.0538 -11.0293 -11.0035
   -10.9619 -10.9552 -10.9067 -10.8956 -10.8951 -10.8716 -10.8715  -3.6344
    -3.2487  -3.1949  -3.1425  -3.1021  -3.1000  -3.1000  -3.0900  -3.0440
    -3.0410  -3.0257  -3.0257  -3.0166  -3.0166  -2.9430  -2.9289  -2.9289
    -2.9223  -2.8771  -2.8732  -2.8732  -2.8597  -2.8449  -2.8438  -2.8438
    -2.8136  -2.7941  -2.7864  -2.3222  -2.3034  -1.9348  -1.3703   0.0378
     0.0378   0.0440   0.0440   0.0804   0.0804   0.1438   0.1438   0.3207
     0.3390   0.4439   0.8981   1.1162   1.1162   1.1304   1.1430   1.1794
     1.1794   1.2731   1.2843   1.3574   1.4057   1.4057   1.4255   1.4255
     1.4571   1.4571   1.4659   1.4677   1.4758   1.4772   1.4823   1.4823
     1.4841   1.4848   1.4991   1.4991   1.5211   1.5211   1.5237   1.5356
     1.5356   1.5415   1.5503   1.5552   1.5568   1.5609   1.5731   1.5731
     1.5914   1.5914   1.6304   1.6304   1.6453   1.6453   1.6668   1.7680
     1.7680   1.7836   1.7836   1.8093   1.8131   2.3011   2.8826   2.9587
     3.3574   3.6299   3.8722   4.3938   6.8347   7.7777   7.7777   7.9714
     7.9714   8.1772   8.3332   8.3332   8.4718   8.4718   8.5527   8.6158
     8.8482   9.4213   9.8631   9.8781   9.9457   9.9531   9.9531  10.0123
    10.2862  10.2933  10.2933  10.3857  10.3857  10.4681  10.4681  10.6127
    10.6127  10.7844  10.7851  10.7851  10.9450  11.0952  11.1465  11.5001

          k =-0.5000 0.0000 0.0000 ( 76940 PWs)   bands (ev):

   -17.2881 -17.2766 -17.2403 -17.2245 -17.2079 -17.1993 -17.1946 -17.1771
   -17.1668 -17.1553 -17.1525 -17.1373 -17.1373 -17.1348 -17.1348 -17.1238
   -17.1181 -17.1155 -17.1155 -17.1140 -17.1140 -17.0986 -17.0176 -16.1256
   -16.1256 -16.1247 -16.1143 -16.0626 -16.0626 -16.0611 -16.0503 -11.1555
   -11.1555 -11.1106 -11.1105 -11.1094 -11.1094 -11.1093 -11.1093 -11.1089
   -11.1088 -11.1088 -11.1070 -11.1070 -11.1069 -11.1069 -11.0998 -11.0979
   -11.0938 -11.0938 -11.0928 -11.0928 -11.0919 -11.0919 -11.0917 -11.0817
   -11.0816 -11.0730 -11.0556 -11.0556 -11.0550 -11.0547 -11.0547 -10.9805
   -10.9544 -10.9485 -10.9362 -10.9343 -10.9065 -10.8716 -10.8716  -3.4918
    -3.4154  -3.2205  -3.1495  -3.1062  -3.0973  -3.0973  -3.0743  -3.0285
    -3.0285  -3.0180  -2.9821  -2.9745  -2.9731  -2.9731  -2.9220  -2.9220
    -2.9204  -2.9177  -2.9177  -2.8741  -2.8560  -2.8527  -2.8527  -2.7980
    -2.7891  -2.6727  -2.6603  -2.6597  -2.4683  -1.8135  -1.6095   0.0413
     0.0413   0.0465   0.0465   0.1041   0.1041   0.1146   0.1146   0.7939
     0.8400   0.8729   0.8806   0.9101   0.9912   0.9914   1.1338   1.1338
     1.1695   1.1695   1.2436   1.2504   1.4085   1.4085   1.4173   1.4173
     1.4480   1.4562   1.4562   1.4621   1.4621   1.4666   1.4670   1.5015
     1.5015   1.5082   1.5118   1.5118   1.5121   1.5146   1.5146   1.5180
     1.5181   1.5455   1.5455   1.5545   1.5600   1.5605   1.5807   1.5807
     1.6389   1.6389   1.6471   1.6471   1.6828   1.6828   1.7038   1.7038
     1.7536   1.7536   1.7886   1.8109   1.8116   1.9409   3.0312   3.0961
     3.2207   3.2244   4.0659   4.0723   7.3384   7.9211   7.9211   7.9345
     8.0793   8.0793   8.2021   8.2021   8.3029   8.3029   8.8708   8.8919
     9.1383   9.3017   9.4641   9.4806   9.9868   9.9868  10.0256  10.1085
    10.3375  10.3375  10.4639  10.4639  10.4922  10.4922  10.5830  10.6029
    10.6029  10.6095  10.7195  10.7195  11.2278  11.3227  11.3250  11.3736

          k = 0.2500 0.2500 0.0000 ( 77061 PWs)   bands (ev):

   -17.2992 -17.2576 -17.2401 -17.2344 -17.2031 -17.1948 -17.1875 -17.1804
   -17.1661 -17.1523 -17.1503 -17.1448 -17.1413 -17.1390 -17.1327 -17.1285
   -17.1222 -17.1172 -17.1157 -17.1127 -17.1126 -17.0948 -17.0173 -16.1256
   -16.1248 -16.1246 -16.1159 -16.0624 -16.0612 -16.0608 -16.0515 -11.1435
   -11.1369 -11.1328 -11.1191 -11.1116 -11.1113 -11.1104 -11.1099 -11.1092
   -11.1091 -11.1090 -11.1087 -11.1071 -11.1067 -11.1047 -11.1047 -11.0999
   -11.0960 -11.0956 -11.0922 -11.0921 -11.0912 -11.0910 -11.0832 -11.0819
   -11.0818 -11.0569 -11.0565 -11.0538 -11.0538 -11.0483 -11.0331 -10.9990
   -10.9796 -10.9542 -10.9192 -10.9167 -10.8956 -10.8920 -10.8872  -3.5643
    -3.2327  -3.1910  -3.1445  -3.1114  -3.0881  -3.0755  -3.0713  -3.0400
    -3.0396  -3.0212  -3.0158  -2.9945  -2.9850  -2.9649  -2.9506  -2.9318
    -2.9217  -2.9025  -2.8883  -2.8753  -2.8734  -2.8667  -2.8486  -2.8363
    -2.8269  -2.7976  -2.7565  -2.4757  -2.2411  -2.1231  -1.6209   0.0402
     0.0570   0.0796   0.1296   0.2046   0.2640   0.3084   0.3407   0.3755
     0.4219   0.6184   0.8912   1.1148   1.1345   1.1370   1.1515   1.1719
     1.1801   1.1882   1.2583   1.2962   1.3319   1.3506   1.4004   1.4043
     1.4173   1.4272   1.4365   1.4457   1.4481   1.4537   1.4637   1.4811
     1.4885   1.4959   1.4992   1.5163   1.5184   1.5303   1.5364   1.5475
     1.5526   1.5587   1.5680   1.5686   1.5819   1.5824   1.5841   1.6013
     1.6037   1.6126   1.6358   1.6380   1.6419   1.6608   1.7010   1.7472
     1.7585   1.7701   1.7769   1.7850   1.7914   2.3542   2.6111   2.9986
     3.2057   3.6065   3.6509   4.1877   6.8478   7.8603   8.0152   8.0885
     8.2362   8.3018   8.3038   8.3724   8.5284   8.5465   8.6999   8.7083
     8.8396   9.3412   9.7688   9.8558   9.8740   9.9689   9.9917   9.9993
    10.0255  10.1189  10.3136  10.3948  10.3970  10.4596  10.5286  10.6048
    10.6637  10.7954  10.7971  10.8382  10.8884  11.1663  11.3438  11.3823

          k = 0.2500-0.5000 0.0000 ( 77076 PWs)   bands (ev):

   -17.2909 -17.2522 -17.2470 -17.2223 -17.2132 -17.1891 -17.1822 -17.1644
   -17.1625 -17.1603 -17.1556 -17.1468 -17.1408 -17.1405 -17.1383 -17.1379
   -17.1326 -17.1179 -17.1149 -17.1129 -17.1128 -17.0943 -17.0169 -16.1254
   -16.1248 -16.1231 -16.1174 -16.0620 -16.0617 -16.0576 -16.0548 -11.1408
   -11.1276 -11.1116 -11.1111 -11.1096 -11.1093 -11.1092 -11.1091 -11.1091
   -11.1091 -11.1071 -11.1066 -11.1047 -11.1046 -11.1046 -11.1019 -11.0956
   -11.0956 -11.0924 -11.0923 -11.0923 -11.0910 -11.0821 -11.0820 -11.0775
   -11.0703 -11.0581 -11.0567 -11.0565 -11.0538 -11.0521 -11.0205 -10.9817
   -10.9812 -10.9649 -10.9604 -10.9358 -10.9256 -10.8956 -10.8939  -3.4149
    -3.3316  -3.1924  -3.1641  -3.0943  -3.0591  -3.0447  -3.0379  -3.0354
    -3.0328  -3.0324  -3.0224  -3.0135  -2.9547  -2.9536  -2.9376  -2.9327
    -2.9129  -2.9111  -2.9064  -2.8973  -2.8899  -2.8574  -2.8564  -2.8213
    -2.8134  -2.7812  -2.7774  -2.5728  -2.4040  -2.0010  -1.9785   0.0425
     0.0781   0.0817   0.1042   0.2779   0.3016   0.3093   0.7435   0.8227
     0.8276   0.8581   0.8740   0.9059   0.9891   1.0559   1.0837   1.1440
     1.1441   1.1600   1.1644   1.2241   1.2770   1.3070   1.3925   1.4014
     1.4050   1.4095   1.4249   1.4266   1.4477   1.4612   1.4676   1.4701
     1.4872   1.4879   1.5041   1.5150   1.5239   1.5268   1.5393   1.5559
     1.5681   1.5703   1.5798   1.5839   1.5853   1.5907   1.5988   1.6234
     1.6270   1.6314   1.6677   1.6774   1.6846   1.6883   1.7064   1.7121
     1.7180   1.7288   1.7757   1.7849   1.9659   2.0350   2.4738   2.9420
     3.2065   3.2982   3.7093   3.9274   6.8668   7.9887   8.1191   8.1635
     8.2735   8.3384   8.4790   8.5213   8.5744   8.7172   8.9977   9.0266
     9.0300   9.1822   9.4181   9.4446   9.4719   9.9662  10.0150  10.0590
    10.0742  10.3164  10.3355  10.3494  10.3963  10.4745  10.6271  10.6434
    10.7355  10.7930  10.7933  10.8524  11.1310  11.1698  11.2289  11.2414

          k =-0.5000 0.0000 0.2500 ( 77076 PWs)   bands (ev):

   -17.2836 -17.2680 -17.2364 -17.2267 -17.2096 -17.1966 -17.1887 -17.1769
   -17.1653 -17.1534 -17.1499 -17.1437 -17.1429 -17.1370 -17.1345 -17.1306
   -17.1228 -17.1190 -17.1158 -17.1155 -17.1143 -17.0974 -17.0172 -16.1255
   -16.1248 -16.1244 -16.1154 -16.0624 -16.0613 -16.0609 -16.0520 -11.1378
   -11.1374 -11.1102 -11.1101 -11.1094 -11.1093 -11.1091 -11.1090 -11.1088
   -11.1088 -11.1070 -11.1070 -11.1069 -11.1068 -11.1061 -11.0983 -11.0942
   -11.0938 -11.0932 -11.0928 -11.0922 -11.0921 -11.0819 -11.0818 -11.0769
   -11.0702 -11.0639 -11.0559 -11.0556 -11.0547 -11.0546 -11.0468 -10.9883
   -10.9680 -10.9653 -10.9474 -10.9368 -10.9138 -10.8916 -10.8904  -3.4297
    -3.3522  -3.2211  -3.1303  -3.1164  -3.0757  -3.0695  -3.0548  -3.0134
    -3.0078  -3.0036  -2.9839  -2.9800  -2.9745  -2.9676  -2.9550  -2.9379
    -2.9271  -2.9187  -2.9130  -2.8926  -2.8819  -2.8699  -2.8444  -2.8282
    -2.8014  -2.7903  -2.7269  -2.5771  -2.4486  -2.0101  -1.8298   0.0488
     0.0540   0.0970   0.1073   0.2851   0.3053   0.3494   0.3534   0.7739
     0.8285   0.8550   0.8872   0.8963   1.0009   1.0071   1.1274   1.1507
     1.1660   1.1826   1.2347   1.2406   1.3115   1.3178   1.4021   1.4035
     1.4112   1.4233   1.4243   1.4308   1.4355   1.4386   1.4636   1.4709
     1.4768   1.4977   1.5020   1.5246   1.5246   1.5306   1.5325   1.5462
     1.5660   1.5692   1.5775   1.5794   1.5809   1.5846   1.5897   1.6147
     1.6327   1.6460   1.6544   1.6592   1.6806   1.6858   1.7021   1.7073
     1.7485   1.7489   1.7833   1.7875   1.8573   2.0080   2.8137   2.8651
     3.2217   3.2374   3.8455   3.8608   7.3392   7.9389   7.9423   8.1169
     8.2035   8.2063   8.2767   8.4031   8.5064   8.5985   8.9726   8.9929
     9.1515   9.2170   9.4017   9.4046   9.8157   9.9674  10.0164  10.0202
    10.0716  10.3216  10.3626  10.3891  10.4517  10.4774  10.5468  10.6896
    10.7227  10.8172  10.8181  10.8740  11.1021  11.1458  11.2278  11.2523

          k =-0.5000-0.5000 0.0000 ( 77148 PWs)   bands (ev):

   -17.2789 -17.2539 -17.2366 -17.2277 -17.2191 -17.1901 -17.1769 -17.1657
   -17.1657 -17.1604 -17.1550 -17.1493 -17.1402 -17.1401 -17.1388 -17.1367
   -17.1342 -17.1188 -17.1161 -17.1156 -17.1146 -17.0966 -17.0168 -16.1254
   -16.1248 -16.1228 -16.1171 -16.0620 -16.0617 -16.0579 -16.0550 -11.1158
   -11.1132 -11.1115 -11.1096 -11.1095 -11.1094 -11.1094 -11.1090 -11.1089
   -11.1088 -11.1086 -11.1070 -11.1070 -11.1069 -11.1068 -11.1050 -11.0945
   -11.0938 -11.0934 -11.0928 -11.0924 -11.0923 -11.0821 -11.0820 -11.0563
   -11.0556 -11.0553 -11.0547 -11.0282 -11.0254 -11.0253 -11.0226 -11.0224
   -11.0220 -11.0011 -10.9670 -10.9262 -10.9229 -10.9223 -10.9058  -3.2990
    -3.2901  -3.2339  -3.1796  -3.0509  -3.0454  -3.0291  -3.0223  -2.9998
    -2.9931  -2.9835  -2.9771  -2.9771  -2.9655  -2.9651  -2.9623  -2.9598
    -2.9538  -2.9392  -2.9233  -2.9145  -2.9124  -2.9016  -2.8930  -2.8833
    -2.8817  -2.8281  -2.8185  -2.3641  -2.3156  -2.3053  -2.1027   0.0600
     0.0647   0.0862   0.0968   0.6005   0.6549   0.6648   0.6657   0.7298
     0.7373   0.7406   0.9237   0.9778   1.0131   1.0331   1.0644   1.0746
     1.1001   1.1426   1.1719   1.2035   1.2180   1.2272   1.3895   1.3899
     1.4025   1.4083   1.4116   1.4234   1.4248   1.4256   1.4275   1.4578
     1.4856   1.4984   1.4993   1.5233   1.5292   1.5383   1.5436   1.5558
     1.5739   1.5845   1.5881   1.5974   1.6126   1.6252   1.6411   1.6512
     1.6536   1.6542   1.6590   1.6624   1.6713   1.6739   1.7050   1.7115
     1.7249   1.7334   1.7559   1.7639   2.0634   2.2794   2.3767   2.3895
     3.3876   3.3933   3.5208   3.5669   7.3538   7.9581   7.9609   8.2006
     8.2035   8.2040   8.5490   8.9201   8.9552   8.9796   8.9822   9.0222
     9.2568   9.2824   9.4692   9.4846   9.5009   9.5115   9.5375   9.5416
    10.0514  10.4044  10.4278  10.4453  10.5032  10.5452  10.5978  10.6084
    10.8696  10.8727  10.9258  10.9263  11.0286  11.1420  11.2344  11.3069

          k =-0.5000 0.2500 0.2500 ( 77148 PWs)   bands (ev):

   -17.2798 -17.2591 -17.2308 -17.2246 -17.2049 -17.1987 -17.1900 -17.1764
   -17.1640 -17.1520 -17.1489 -17.1484 -17.1467 -17.1403 -17.1387 -17.1325
   -17.1256 -17.1227 -17.1192 -17.1161 -17.1148 -17.0965 -17.0168 -16.1250
   -16.1246 -16.1240 -16.1166 -16.0613 -16.0610 -16.0610 -16.0534 -11.1161
   -11.1161 -11.1098 -11.1098 -11.1091 -11.1090 -11.1090 -11.1089 -11.1088
   -11.1087 -11.1070 -11.1069 -11.1068 -11.1067 -11.0944 -11.0941 -11.0935
   -11.0930 -11.0924 -11.0923 -11.0843 -11.0821 -11.0820 -11.0755 -11.0735
   -11.0686 -11.0591 -11.0558 -11.0556 -11.0546 -11.0544 -11.0424 -10.9933
   -10.9712 -10.9683 -10.9590 -10.9572 -10.9252 -10.9142 -10.9142  -3.3674
    -3.2897  -3.1919  -3.1284  -3.0913  -3.0733  -3.0587  -3.0335  -3.0081
    -3.0038  -2.9935  -2.9875  -2.9815  -2.9799  -2.9536  -2.9505  -2.9418
    -2.9373  -2.9356  -2.9167  -2.9112  -2.9029  -2.8790  -2.8739  -2.8477
    -2.8335  -2.7050  -2.6912  -2.6890  -2.5313  -2.1812  -2.0157   0.2196
     0.2240   0.3004   0.3103   0.3243   0.3258   0.3930   0.4202   0.7664
     0.8227   0.8518   0.8566   0.8712   1.0127   1.0225   1.1313   1.1383
     1.1536   1.1835   1.2104   1.2153   1.2216   1.2229   1.3859   1.4087
     1.4123   1.4145   1.4208   1.4249   1.4255   1.4301   1.4517   1.4626
     1.4627   1.4672   1.4839   1.4962   1.5340   1.5394   1.5439   1.5801
     1.5865   1.5869   1.6007   1.6092   1.6101   1.6135   1.6200   1.6224
     1.6456   1.6594   1.6606   1.6666   1.6790   1.6916   1.6997   1.7074
     1.7413   1.7534   1.7648   1.7702   1.9259   2.0789   2.8167   2.8852
     3.0076   3.0083   3.6110   3.6312   7.3402   7.9555   8.2254   8.2376
     8.4184   8.4563   8.5047   8.5299   8.5787   8.5914   9.0441   9.0716
     9.1719   9.2493   9.3086   9.3410   9.6819   9.8821   9.9074   9.9879
     9.9906  10.0014  10.0513  10.0634  10.5402  10.6006  10.6588  10.6899
    10.8322  10.8607  10.9702  10.9903  11.0352  11.0674  11.2358  11.2684

          k =-0.5000-0.5000 0.2500 ( 77112 PWs)   bands (ev):

   -17.2761 -17.2440 -17.2311 -17.2182 -17.2131 -17.1973 -17.1759 -17.1719
   -17.1715 -17.1597 -17.1561 -17.1495 -17.1450 -17.1400 -17.1383 -17.1372
   -17.1364 -17.1243 -17.1208 -17.1154 -17.1153 -17.0958 -17.0164 -16.1251
   -16.1243 -16.1226 -16.1182 -16.0612 -16.0610 -16.0584 -16.0560 -11.1094
   -11.1093 -11.1091 -11.1091 -11.1090 -11.1089 -11.1087 -11.1086 -11.1071
   -11.1069 -11.1068 -11.1066 -11.0948 -11.0947 -11.0939 -11.0939 -11.0927
   -11.0926 -11.0873 -11.0851 -11.0840 -11.0823 -11.0822 -11.0783 -11.0562
   -11.0555 -11.0553 -11.0546 -11.0282 -11.0254 -11.0253 -11.0226 -11.0224
   -11.0220 -11.0012 -10.9710 -10.9534 -10.9500 -10.9489 -10.9283  -3.2409
    -3.2314  -3.1749  -3.1314  -3.0554  -3.0461  -3.0335  -3.0304  -3.0079
    -2.9981  -2.9908  -2.9860  -2.9760  -2.9679  -2.9652  -2.9622  -2.9554
    -2.9509  -2.9480  -2.9352  -2.9340  -2.9223  -2.8679  -2.8660  -2.8594
    -2.8583  -2.8389  -2.8008  -2.4978  -2.4583  -2.4489  -2.2539   0.2731
     0.2816   0.3102   0.3184   0.6028   0.6583   0.6666   0.6683   0.7282
     0.7343   0.7382   0.8713   0.9297   0.9400   0.9566   1.0497   1.0767
     1.0936   1.1269   1.1525   1.1949   1.1983   1.2073   1.3951   1.3960
     1.4076   1.4087   1.4158   1.4220   1.4231   1.4245   1.4362   1.4381
     1.4636   1.4697   1.4704   1.4879   1.5359   1.5376   1.5444   1.5944
     1.6130   1.6210   1.6224   1.6262   1.6280   1.6364   1.6567   1.6568
     1.6644   1.6747   1.6761   1.6788   1.6842   1.6896   1.7001   1.7059
     1.7147   1.7199   1.7535   1.7554   2.1333   2.3414   2.4652   2.4699
     3.1281   3.1332   3.2575   3.2970   7.3498   7.9740   8.2604   8.5170
     8.5235   8.5250   8.6286   8.9913   9.0318   9.0489   9.0511   9.0899
     9.2553   9.2626   9.3978   9.4052   9.4142   9.4226   9.4277   9.4380
     9.7158   9.9578   9.9664   9.9749  10.6425  10.7208  10.7732  10.7880
    10.9365  11.0933  11.1388  11.1622  11.1716  11.1772  11.1960  11.2193

     the Fermi energy is     6.8867 ev

!    total energy              =  -11659.37376779 Ry
     total all-electron energy =   -463302.442493 Ry
     estimated scf accuracy    <       0.00000057 Ry
     smearing contrib. (-TS)   =      -0.01203031 Ry
     internal energy E=F+TS    =  -11659.36173748 Ry

     The total energy is F=E-TS. E is the sum of the following terms:
     one-electron contribution =   -1200.63110947 Ry
     hartree contribution      =     831.54525295 Ry
     xc contribution           =    -651.17590906 Ry
     ewald contribution        =   -1553.20217207 Ry
     one-center paw contrib.   =   -9085.89779984 Ry

     convergence has been achieved in  21 iterations

     Writing all to output data dir ../../tmp/cspbf3_VF.save/

     init_run     :    534.65s CPU    539.26s WALL (       1 calls)
     electrons    :  37831.66s CPU  38106.28s WALL (       1 calls)

     Called by init_run:
     wfcinit      :    507.59s CPU    511.08s WALL (       1 calls)
     potinit      :      6.28s CPU      6.40s WALL (       1 calls)
     hinit0       :      2.04s CPU      2.10s WALL (       1 calls)

     Called by electrons:
     c_bands      :  33721.49s CPU  33933.43s WALL (      21 calls)
     sum_band     :   3689.57s CPU   3732.30s WALL (      21 calls)
     v_of_rho     :     18.98s CPU     19.96s WALL (      22 calls)
     newd         :    334.98s CPU    353.86s WALL (      22 calls)
     PAW_pot      :     85.44s CPU     85.78s WALL (      22 calls)
     mix_rho      :      2.49s CPU      2.86s WALL (      21 calls)

     Called by c_bands:
     init_us_2    :     31.05s CPU     31.39s WALL (     774 calls)
     init_us_2:cp :     31.05s CPU     31.39s WALL (     774 calls)
     cegterg      :  33468.40s CPU  33678.25s WALL (     380 calls)

     Called by *egterg:
     cdiaghg      :    334.07s CPU    337.03s WALL (    2147 calls)
     h_psi        :  14252.64s CPU  14369.13s WALL (    2165 calls)
     s_psi        :   4965.44s CPU   4984.80s WALL (    2165 calls)
     g_psi        :     10.36s CPU     10.45s WALL (    1767 calls)

     Called by h_psi:
     h_psi:calbec :   6614.82s CPU   6639.80s WALL (    2165 calls)
     vloc_psi     :   2664.42s CPU   2730.90s WALL (    2165 calls)
     add_vuspsi   :   4963.47s CPU   4981.61s WALL (    2165 calls)

     General routines
     calbec       :   9419.95s CPU   9455.00s WALL (    2543 calls)
     fft          :     11.39s CPU     12.06s WALL (     284 calls)
     ffts         :      0.53s CPU      0.56s WALL (      43 calls)
     fftw         :   2801.55s CPU   2877.27s WALL (  462888 calls)
     interpolate  :      1.21s CPU      1.27s WALL (      22 calls)

     Parallel routines

     PWSCF        :     10h39m CPU     10h44m WALL


   This run was terminated on:  22:44:39  21Jun2026            

=------------------------------------------------------------------------------=
   JOB DONE.
=------------------------------------------------------------------------------=
Note: The following floating-point exceptions are signalling: IEEE_DENORMAL
