
     Program PWSCF v.7.2 starts on 18Jun2026 at  0:34:21 

     This program is part of the open-source Quantum ESPRESSO suite
     for quantum simulation of materials; please cite
         "P. Giannozzi et al., J. Phys.:Condens. Matter 21 395502 (2009);
         "P. Giannozzi et al., J. Phys.:Condens. Matter 29 465901 (2017);
         "P. Giannozzi et al., J. Chem. Phys. 152 154105 (2020);
          URL http://www.quantum-espresso.org", 
     in publications or presentations arising from this work. More details at
     http://www.quantum-espresso.org/quote

     Parallel version (MPI), running on     4 processors

     MPI processes distributed on     1 nodes
     142800 MiB available memory on the printing compute node when the environment starts

     Waiting for input...
     Reading input from standard input

     Current dimensions of program PWSCF are:
     Max number of different atomic species (ntypx) = 10
     Max number of k-points (npk) =  40000
     Max angular momentum in pseudopotentials (lmaxx) =  4
     file Cs.pbe-spn-kjpaw_psl.1.0.0.UPF: wavefunction(s)  5S 6S renormalized
     file Pb.pbe-dn-kjpaw_psl.1.0.0.UPF: wavefunction(s)  6S 6P 5D renormalized
     file F.pbe-n-kjpaw_psl.1.0.0.UPF: wavefunction(s)  2S 2P renormalized

     R & G space division:  proc/nbgrp/npool/nimage =       4
     Subspace diagonalization in iterative solution of the eigenvalue problem:
     a serial algorithm will be used


     Parallelization info
     --------------------
     sticks:   dense  smooth     PW     G-vecs:    dense   smooth      PW
     Min        1093     546    154                54413    19238    2908
     Max        1094     547    156                54418    19243    2909
     Sum        4373    2185    621               217663    76957   11633

     Using Slab Decomposition



     bravais-lattice index     =            1
     lattice parameter (alat)  =       9.2729  a.u.
     unit-cell volume          =     797.3536 (a.u.)^3
     number of atoms/cell      =            5
     number of atomic types    =            3
     number of electrons       =        44.00
     number of Kohn-Sham states=           22
     kinetic-energy cutoff     =      80.0000  Ry
     charge density cutoff     =     640.0000  Ry
     scf convergence threshold =      1.0E-08
     mixing beta               =       0.3000
     number of iterations used =            8  plain     mixing
     Exchange-correlation= SLA  PW   PBX  PBC
                           (   1   4   3   4   0   0   0)

     celldm(1)=   9.272930  celldm(2)=   0.000000  celldm(3)=   0.000000
     celldm(4)=   0.000000  celldm(5)=   0.000000  celldm(6)=   0.000000

     crystal axes: (cart. coord. in units of alat)
               a(1) = (   1.000000   0.000000   0.000000 )  
               a(2) = (   0.000000   1.000000   0.000000 )  
               a(3) = (   0.000000   0.000000   1.000000 )  

     reciprocal axes: (cart. coord. in units 2 pi/alat)
               b(1) = (  1.000000  0.000000  0.000000 )  
               b(2) = (  0.000000  1.000000  0.000000 )  
               b(3) = (  0.000000  0.000000  1.000000 )  


     PseudoPot. # 1 for Cs read from file:
     ../../pseudo/Cs.pbe-spn-kjpaw_psl.1.0.0.UPF
     MD5 check sum: b82c75cc2e1f4ff73b6412cffeb9c584
     Pseudo is Projector augmented-wave + core cor, Zval =  9.0
     Generated using &quot;atomic&quot; code by A. Dal Corso  v.6.4.1
     Shape of augmentation charge: PSQ
     Using radial grid of 1251 points,  9 beta functions with: 
                l(1) =   0
                l(2) =   0
                l(3) =   0
                l(4) =   1
                l(5) =   1
                l(6) =   2
                l(7) =   2
                l(8) =   3
                l(9) =   3
     Q(r) pseudized with 0 coefficients 


     PseudoPot. # 2 for Pb read from file:
     ../../pseudo/Pb.pbe-dn-kjpaw_psl.1.0.0.UPF
     MD5 check sum: 8dd1fa6bc87c0adeb4efb5a3e91ed847
     Pseudo is Projector augmented-wave + core cor, Zval = 14.0
     Generated using &quot;atomic&quot; code by A. Dal Corso  v.6.3
     Shape of augmentation charge: PSQ
     Using radial grid of 1281 points,  6 beta functions with: 
                l(1) =   0
                l(2) =   0
                l(3) =   1
                l(4) =   1
                l(5) =   2
                l(6) =   2
     Q(r) pseudized with 0 coefficients 


     PseudoPot. # 3 for F  read from file:
     ../../pseudo/F.pbe-n-kjpaw_psl.1.0.0.UPF
     MD5 check sum: 66d718ea72839a4268ab2a9540e8cdd4
     Pseudo is Projector augmented-wave + core cor, Zval =  7.0
     Generated using &quot;atomic&quot; code by A. Dal Corso  v.6.3
     Shape of augmentation charge: PSQ
     Using radial grid of 1105 points,  4 beta functions with: 
                l(1) =   0
                l(2) =   0
                l(3) =   1
                l(4) =   1
     Q(r) pseudized with 0 coefficients 


     atomic species   valence    mass     pseudopotential
        Cs             9.00   132.91000     Cs( 1.00)
        Pb            14.00   207.20000     Pb( 1.00)
        F              7.00    18.99800     F ( 1.00)

     48 Sym. Ops., with inversion, found



   Cartesian axes

     site n.     atom                  positions (alat units)
         1           Pb  tau(   1) = (   0.0000000   0.0000000   0.0000000  )
         2           Cs  tau(   2) = (   0.5000000   0.5000000   0.5000000  )
         3           F   tau(   3) = (   0.0000000   0.5000000   0.0000000  )
         4           F   tau(   4) = (   0.5000000   0.0000000   0.0000000  )
         5           F   tau(   5) = (   0.0000000   0.0000000   0.5000000  )

     number of k points=    35
                       cart. coord. in units 2pi/alat
        k(    1) = (   0.0000000   0.0000000   0.0000000), wk =   0.0039062
        k(    2) = (   0.0000000   0.0000000   0.1250000), wk =   0.0234375
        k(    3) = (   0.0000000   0.0000000   0.2500000), wk =   0.0234375
        k(    4) = (   0.0000000   0.0000000   0.3750000), wk =   0.0234375
        k(    5) = (   0.0000000   0.0000000  -0.5000000), wk =   0.0117188
        k(    6) = (   0.0000000   0.1250000   0.1250000), wk =   0.0468750
        k(    7) = (   0.0000000   0.1250000   0.2500000), wk =   0.0937500
        k(    8) = (   0.0000000   0.1250000   0.3750000), wk =   0.0937500
        k(    9) = (   0.0000000   0.1250000  -0.5000000), wk =   0.0468750
        k(   10) = (   0.0000000   0.2500000   0.2500000), wk =   0.0468750
        k(   11) = (   0.0000000   0.2500000   0.3750000), wk =   0.0937500
        k(   12) = (   0.0000000   0.2500000  -0.5000000), wk =   0.0468750
        k(   13) = (   0.0000000   0.3750000   0.3750000), wk =   0.0468750
        k(   14) = (   0.0000000   0.3750000  -0.5000000), wk =   0.0468750
        k(   15) = (   0.0000000  -0.5000000  -0.5000000), wk =   0.0117188
        k(   16) = (   0.1250000   0.1250000   0.1250000), wk =   0.0312500
        k(   17) = (   0.1250000   0.1250000   0.2500000), wk =   0.0937500
        k(   18) = (   0.1250000   0.1250000   0.3750000), wk =   0.0937500
        k(   19) = (   0.1250000   0.1250000  -0.5000000), wk =   0.0468750
        k(   20) = (   0.1250000   0.2500000   0.2500000), wk =   0.0937500
        k(   21) = (   0.1250000   0.2500000   0.3750000), wk =   0.1875000
        k(   22) = (   0.1250000   0.2500000  -0.5000000), wk =   0.0937500
        k(   23) = (   0.1250000   0.3750000   0.3750000), wk =   0.0937500
        k(   24) = (   0.1250000   0.3750000  -0.5000000), wk =   0.0937500
        k(   25) = (   0.1250000  -0.5000000  -0.5000000), wk =   0.0234375
        k(   26) = (   0.2500000   0.2500000   0.2500000), wk =   0.0312500
        k(   27) = (   0.2500000   0.2500000   0.3750000), wk =   0.0937500
        k(   28) = (   0.2500000   0.2500000  -0.5000000), wk =   0.0468750
        k(   29) = (   0.2500000   0.3750000   0.3750000), wk =   0.0937500
        k(   30) = (   0.2500000   0.3750000  -0.5000000), wk =   0.0937500
        k(   31) = (   0.2500000  -0.5000000  -0.5000000), wk =   0.0234375
        k(   32) = (   0.3750000   0.3750000   0.3750000), wk =   0.0312500
        k(   33) = (   0.3750000   0.3750000  -0.5000000), wk =   0.0468750
        k(   34) = (   0.3750000  -0.5000000  -0.5000000), wk =   0.0234375
        k(   35) = (  -0.5000000  -0.5000000  -0.5000000), wk =   0.0039062

     Dense  grid:   217663 G-vectors     FFT dimensions: (  75,  75,  75)

     Smooth grid:    76957 G-vectors     FFT dimensions: (  54,  54,  54)

     Estimated max dynamical RAM per process >     573.87 MB

     Estimated total dynamical RAM >       2.24 GB

     Initial potential from superposition of free atoms

     starting charge      43.9580, renormalised to      44.0000
     Starting wfcs are   26 randomized atomic wfcs
     Checking if some PAW data can be deallocated... 

     total cpu time spent up to now is        6.2 secs

     Self-consistent Calculation

     iteration #  1     ecut=    80.00 Ry     beta= 0.30
     Davidson diagonalization with overlap
     ethr =  1.00E-02,  avg # of iterations =  1.0

     total cpu time spent up to now is       14.6 secs

     total energy              =   -1464.67552110 Ry
     estimated scf accuracy    <       0.85830336 Ry

     iteration #  2     ecut=    80.00 Ry     beta= 0.30
     Davidson diagonalization with overlap
     ethr =  1.95E-03,  avg # of iterations =  2.0

     total cpu time spent up to now is       24.7 secs

     total energy              =   -1464.83592604 Ry
     estimated scf accuracy    <       0.05478231 Ry

     iteration #  3     ecut=    80.00 Ry     beta= 0.30
     Davidson diagonalization with overlap
     ethr =  1.25E-04,  avg # of iterations =  5.4

     total cpu time spent up to now is       38.5 secs

     total energy              =   -1464.86147626 Ry
     estimated scf accuracy    <       0.02414138 Ry

     iteration #  4     ecut=    80.00 Ry     beta= 0.30
     Davidson diagonalization with overlap
     ethr =  5.49E-05,  avg # of iterations =  3.1

     total cpu time spent up to now is       49.1 secs

     total energy              =   -1464.86649004 Ry
     estimated scf accuracy    <       0.01216354 Ry

     iteration #  5     ecut=    80.00 Ry     beta= 0.30
     Davidson diagonalization with overlap
     ethr =  2.76E-05,  avg # of iterations =  2.0

     total cpu time spent up to now is       58.9 secs

     total energy              =   -1464.86650382 Ry
     estimated scf accuracy    <       0.00163804 Ry

     iteration #  6     ecut=    80.00 Ry     beta= 0.30
     Davidson diagonalization with overlap
     ethr =  3.72E-06,  avg # of iterations =  6.0

     total cpu time spent up to now is       73.6 secs

     total energy              =   -1464.86665941 Ry
     estimated scf accuracy    <       0.00574050 Ry

     iteration #  7     ecut=    80.00 Ry     beta= 0.30
     Davidson diagonalization with overlap
     ethr =  3.72E-06,  avg # of iterations =  4.0

     total cpu time spent up to now is       85.5 secs

     total energy              =   -1464.86804733 Ry
     estimated scf accuracy    <       0.00013675 Ry

     iteration #  8     ecut=    80.00 Ry     beta= 0.30
     Davidson diagonalization with overlap
     ethr =  3.11E-07,  avg # of iterations =  4.2

     total cpu time spent up to now is       97.3 secs

     total energy              =   -1464.86807072 Ry
     estimated scf accuracy    <       0.00007210 Ry

     iteration #  9     ecut=    80.00 Ry     beta= 0.30
     Davidson diagonalization with overlap
     ethr =  1.64E-07,  avg # of iterations =  4.5

     total cpu time spent up to now is      109.3 secs

     total energy              =   -1464.86809104 Ry
     estimated scf accuracy    <       0.00018289 Ry

     iteration # 10     ecut=    80.00 Ry     beta= 0.30
     Davidson diagonalization with overlap
     ethr =  1.64E-07,  avg # of iterations =  3.3

     total cpu time spent up to now is      119.8 secs

     total energy              =   -1464.86810668 Ry
     estimated scf accuracy    <       0.00001407 Ry

     iteration # 11     ecut=    80.00 Ry     beta= 0.30
     Davidson diagonalization with overlap
     ethr =  3.20E-08,  avg # of iterations =  4.3

     total cpu time spent up to now is      130.5 secs

     total energy              =   -1464.86811039 Ry
     estimated scf accuracy    <       0.00000071 Ry

     iteration # 12     ecut=    80.00 Ry     beta= 0.30
     Davidson diagonalization with overlap
     ethr =  1.62E-09,  avg # of iterations =  4.7

     total cpu time spent up to now is      142.6 secs

     total energy              =   -1464.86810992 Ry
     estimated scf accuracy    <       0.00000095 Ry

     iteration # 13     ecut=    80.00 Ry     beta= 0.30
     Davidson diagonalization with overlap
     ethr =  1.62E-09,  avg # of iterations =  4.9

     total cpu time spent up to now is      155.0 secs

     total energy              =   -1464.86811003 Ry
     estimated scf accuracy    <       0.00000218 Ry

     iteration # 14     ecut=    80.00 Ry     beta= 0.30
     Davidson diagonalization with overlap
     ethr =  1.62E-09,  avg # of iterations =  3.9

     total cpu time spent up to now is      166.5 secs

     End of self-consistent calculation

          k = 0.0000 0.0000 0.0000 (  9771 PWs)   bands (ev):

   -17.2339 -17.0817 -17.0817 -16.0059 -11.0158 -11.0158 -11.0158 -10.7950
   -10.7950  -2.8549  -2.8549  -2.8549  -0.9834   0.1128   0.1128   0.1128
     1.6292   1.6292   1.6292   1.7223   1.7223   1.7223

          k = 0.0000 0.0000 0.1250 (  9647 PWs)   bands (ev):

   -17.2238 -17.0816 -17.0785 -16.0084 -11.0168 -11.0168 -11.0158 -10.8240
   -10.7950  -2.8790  -2.8445  -2.8445  -1.3068   0.1140   0.1140   0.5538
     1.6170   1.6222   1.6222   1.7125   1.7125   1.7526

          k = 0.0000 0.0000 0.2500 (  9618 PWs)   bands (ev):

   -17.1991 -17.0813 -17.0707 -16.0145 -11.0191 -11.0191 -11.0157 -10.8939
   -10.7950  -2.9405  -2.8190  -2.8190  -1.7219   0.1160   0.1160   1.0939
     1.5877   1.6069   1.6069   1.6881   1.6881   2.0308

          k = 0.0000 0.0000 0.3750 (  9634 PWs)   bands (ev):

   -17.1739 -17.0810 -17.0631 -16.0206 -11.0214 -11.0214 -11.0157 -10.9641
   -10.7950  -3.0072  -2.7929  -2.7929  -1.9742   0.1163   0.1163   1.2228
     1.5589   1.5964   1.5964   1.6604   1.6604   2.6467

          k = 0.0000 0.0000-0.5000 (  9626 PWs)   bands (ev):

   -17.1632 -17.0809 -17.0600 -16.0231 -11.0223 -11.0223 -11.0156 -10.9933
   -10.7950  -3.0362  -2.7819  -2.7819  -2.0550   0.1158   0.1158   1.2300
     1.5471   1.5948   1.5948   1.6468   1.6468   2.9634

          k = 0.0000 0.1250 0.1250 (  9629 PWs)   bands (ev):

   -17.2139 -17.0799 -17.0768 -16.0107 -11.0177 -11.0168 -11.0167 -10.8381
   -10.8096  -2.8710  -2.8700  -2.8347  -1.5530   0.1173   0.2849   0.7321
     1.5820   1.6148   1.6407   1.7019   1.7341   1.7793

          k = 0.0000 0.1250 0.2500 (  9623 PWs)   bands (ev):

   -17.1897 -17.0789 -17.0695 -16.0163 -11.0200 -11.0190 -11.0167 -10.9022
   -10.8150  -2.9375  -2.8486  -2.8106  -1.9217   0.1244   0.3680   1.1058
     1.5438   1.5989   1.6393   1.6755   1.7258   2.1097

          k = 0.0000 0.1250 0.3750 (  9640 PWs)   bands (ev):

   -17.1653 -17.0784 -17.0615 -16.0218 -11.0222 -11.0213 -11.0166 -10.9711
   -10.8158  -3.0105  -2.8231  -2.7860  -2.1632   0.1301   0.3903   1.2145
     1.5273   1.5878   1.6205   1.6454   1.7084   2.7304

          k = 0.0000 0.1250-0.5000 (  9632 PWs)   bands (ev):

   -17.1551 -17.0781 -17.0582 -16.0241 -11.0231 -11.0223 -11.0166 -10.9999
   -10.8159  -3.0424  -2.8109  -2.7757  -2.2439   0.1319   0.3965   1.2239
     1.5281   1.5864   1.6070   1.6301   1.7006   3.0436

          k = 0.0000 0.2500 0.2500 (  9661 PWs)   bands (ev):

   -17.1673 -17.0741 -17.0648 -16.0206 -11.0220 -11.0190 -11.0189 -10.9400
   -10.8456  -2.9395  -2.9115  -2.7901  -2.2559   0.1444   0.7316   1.1520
     1.4995   1.5804   1.6442   1.6604   1.7756   2.4582

          k = 0.0000 0.2500 0.3750 (  9639 PWs)   bands (ev):

   -17.1460 -17.0703 -17.0575 -16.0249 -11.0241 -11.0212 -11.0188 -10.9972
   -10.8570  -3.0166  -2.8963  -2.7692  -2.4950   0.1639   0.8919   1.1955
     1.5049   1.5665   1.6088   1.6514   1.7875   3.0179

          k = 0.0000 0.2500-0.5000 (  9604 PWs)   bands (ev):

   -17.1377 -17.0688 -17.0537 -16.0266 -11.0250 -11.0234 -11.0221 -11.0188
   -10.8594  -3.0541  -2.8792  -2.7604  -2.5827   0.1718   0.9319   1.1989
     1.5344   1.5653   1.5898   1.6310   1.7874   3.3076

          k = 0.0000 0.3750 0.3750 (  9618 PWs)   bands (ev):

   -17.1301 -17.0594 -17.0525 -16.0279 -11.0390 -11.0261 -11.0211 -11.0210
   -10.8830  -3.0305  -2.9538  -2.7522  -2.7445   0.1987   1.1757   1.2434
     1.5212   1.5466   1.5701   1.6563   1.8403   3.4671

          k = 0.0000 0.3750-0.5000 (  9622 PWs)   bands (ev):

   -17.1247 -17.0547 -17.0493 -16.0292 -11.0601 -11.0269 -11.0220 -11.0210
   -10.8899  -3.0526  -2.9451  -2.8482  -2.7450   0.2134   1.1676   1.3484
     1.5427   1.5495   1.5633   1.6326   1.8563   3.7148

          k = 0.0000-0.5000-0.5000 (  9580 PWs)   bands (ev):

   -17.1207 -17.0474 -17.0474 -16.0303 -11.0792 -11.0277 -11.0219 -11.0219
   -10.8988  -3.0232  -2.9717  -2.9717  -2.7386   0.2311   1.1541   1.5328
     1.5328   1.5427   1.5777   1.5777   1.8824   3.9433

          k = 0.1250 0.1250 0.1250 (  9615 PWs)   bands (ev):

   -17.2041 -17.0767 -17.0767 -16.0128 -11.0177 -11.0177 -11.0177 -10.8381
   -10.8381  -2.8632  -2.8632  -2.8620  -1.7600   0.2876   0.2876   0.8578
     1.5771   1.5771   1.6663   1.7253   1.7253   1.8261

          k = 0.1250 0.1250 0.2500 (  9638 PWs)   bands (ev):

   -17.1802 -17.0763 -17.0686 -16.0178 -11.0200 -11.0198 -11.0176 -10.9072
   -10.8381  -2.9359  -2.8442  -2.8412  -2.0955   0.2931   0.4340   1.1157
     1.5349   1.5642   1.6714   1.7128   1.7188   2.1930

          k = 0.1250 0.1250 0.3750 (  9642 PWs)   bands (ev):

   -17.1563 -17.0760 -17.0602 -16.0227 -11.0223 -11.0220 -11.0175 -10.9764
   -10.8380  -3.0166  -2.8250  -2.8124  -2.3270   0.2973   0.4883   1.2117
     1.5113   1.5613   1.6461   1.6843   1.7134   2.8124

          k = 0.1250 0.1250-0.5000 (  9612 PWs)   bands (ev):

   -17.1464 -17.0759 -17.0566 -16.0248 -11.0233 -11.0229 -11.0175 -11.0052
   -10.8380  -3.0520  -2.8169  -2.7963  -2.4080   0.2986   0.5047   1.2257
     1.5056   1.5693   1.6315   1.6608   1.7141   3.1221

          k = 0.1250 0.2500 0.2500 (  9628 PWs)   bands (ev):

   -17.1576 -17.0714 -17.0646 -16.0214 -11.0221 -11.0199 -11.0198 -10.9400
   -10.8732  -2.9461  -2.9097  -2.8280  -2.3964   0.3602   0.7379   1.1568
     1.5009   1.5440   1.6876   1.7012   1.7692   2.5431

          k = 0.1250 0.2500 0.3750 (  9647 PWs)   bands (ev):

   -17.1362 -17.0687 -17.0568 -16.0250 -11.0242 -11.0221 -11.0198 -10.9986
   -10.8827  -3.0350  -2.8986  -2.8095  -2.6162   0.3831   0.9125   1.2083
     1.4906   1.5379   1.6604   1.6924   1.7854   3.0947

          k = 0.1250 0.2500-0.5000 (  9632 PWs)   bands (ev):

   -17.1278 -17.0678 -17.0527 -16.0265 -11.0254 -11.0251 -11.0230 -11.0198
   -10.8842  -3.0786  -2.8817  -2.7938  -2.7059   0.3913   0.9608   1.2207
     1.4965   1.5467   1.6553   1.6657   1.7885   3.3812

          k = 0.1250 0.3750 0.3750 (  9626 PWs)   bands (ev):

   -17.1195 -17.0585 -17.0523 -16.0273 -11.0389 -11.0262 -11.0220 -11.0220
   -10.9095  -3.0811  -2.9575  -2.8408  -2.7804   0.4237   1.2082   1.2523
     1.4885   1.5249   1.6441   1.6965   1.8401   3.5374

          k = 0.1250 0.3750-0.5000 (  9642 PWs)   bands (ev):

   -17.1140 -17.0544 -17.0488 -16.0282 -11.0603 -11.0270 -11.0230 -11.0220
   -10.9161  -3.1191  -2.9499  -2.9157  -2.7852   0.4395   1.2095   1.3564
     1.4991   1.5282   1.6475   1.6750   1.8570   3.7833

          k = 0.1250-0.5000-0.5000 (  9616 PWs)   bands (ev):

   -17.1099 -17.0472 -17.0472 -16.0289 -11.0792 -11.0278 -11.0229 -11.0229
   -10.9250  -3.1473  -2.9775  -2.9775  -2.7814   0.4585   1.2045   1.4978
     1.4978   1.5430   1.6484   1.6484   1.8833   4.0107

          k = 0.2500 0.2500 0.2500 (  9651 PWs)   bands (ev):

   -17.1347 -17.0642 -17.0642 -16.0233 -11.0223 -11.0223 -11.0217 -10.9399
   -10.9399  -2.9929  -2.9054  -2.9054  -2.6340   0.7529   0.7529   1.1864
     1.5017   1.5017   1.7510   1.7510   1.7571   2.8591

          k = 0.2500 0.2500 0.3750 (  9625 PWs)   bands (ev):

   -17.1134 -17.0637 -17.0549 -16.0253 -11.0247 -11.0240 -11.0221 -11.0070
   -10.9399  -3.1190  -2.9155  -2.9011  -2.7903   0.7673   1.0147   1.2427
     1.4802   1.5061   1.7327   1.7536   1.7930   3.3561

          k = 0.2500 0.2500-0.5000 (  9626 PWs)   bands (ev):

   -17.1053 -17.0636 -17.0502 -16.0261 -11.0349 -11.0257 -11.0248 -11.0221
   -10.9398  -3.1790  -2.8993  -2.8941  -2.8600   0.7730   1.0968   1.2670
     1.4748   1.5227   1.7238   1.7321   1.8057   3.6241

          k = 0.2500 0.3750 0.3750 (  9642 PWs)   bands (ev):

   -17.0941 -17.0560 -17.0518 -16.0256 -11.0389 -11.0266 -11.0245 -11.0243
   -10.9739  -3.2651  -2.9664  -2.9329  -2.8654   0.8976   1.2745   1.2847
     1.4745   1.4962   1.7513   1.7693   1.8401   3.7702

          k = 0.2500 0.3750-0.5000 (  9644 PWs)   bands (ev):

   -17.0881 -17.0535 -17.0477 -16.0257 -11.0610 -11.0275 -11.0253 -11.0245
   -10.9793  -3.3303  -2.9731  -2.9617  -2.8779   0.9208   1.3059   1.3804
     1.4752   1.5094   1.7540   1.7585   1.8591   4.0062

          k = 0.2500-0.5000-0.5000 (  9644 PWs)   bands (ev):

   -17.0837 -17.0466 -17.0466 -16.0256 -11.0791 -11.0283 -11.0255 -11.0255
   -10.9884  -3.3959  -2.9916  -2.9916  -2.8805   0.9522   1.3208   1.4773
     1.4773   1.5438   1.7568   1.7568   1.8856   4.2280

          k = 0.3750 0.3750 0.3750 (  9675 PWs)   bands (ev):

   -17.0705 -17.0513 -17.0513 -16.0239 -11.0388 -11.0388 -11.0270 -11.0270
   -11.0265  -3.4532  -2.9753  -2.9753  -2.9395   1.2979   1.2979   1.3615
     1.4780   1.4780   1.8220   1.8220   1.8498   4.1415

          k = 0.3750 0.3750-0.5000 (  9638 PWs)   bands (ev):

   -17.0634 -17.0511 -17.0465 -16.0232 -11.0658 -11.0388 -11.0280 -11.0276
   -11.0269  -3.5247  -2.9974  -2.9789  -2.9604   1.3081   1.3960   1.4320
     1.4717   1.4984   1.8287   1.8358   1.8677   4.3616

          k = 0.3750-0.5000-0.5000 (  9660 PWs)   bands (ev):

   -17.0570 -17.0461 -17.0461 -16.0222 -11.0790 -11.0524 -11.0288 -11.0280
   -11.0280  -3.5972  -3.0054  -3.0054  -2.9739   1.3837   1.4307   1.4738
     1.4738   1.5447   1.8510   1.8510   1.8879   4.5768

          k =-0.5000-0.5000-0.5000 (  9568 PWs)   bands (ev):

   -17.0458 -17.0458 -17.0458 -16.0208 -11.0790 -11.0790 -11.0290 -11.0290
   -11.0290  -3.6708  -3.0111  -3.0111  -3.0111   1.4744   1.4744   1.4744
     1.5450   1.5450   1.8888   1.8888   1.8888   4.7935

     highest occupied level (ev):     4.7935

!    total energy              =   -1464.86811046 Ry
     total all-electron energy =    -57937.803291 Ry
     estimated scf accuracy    <          4.5E-09 Ry

     The total energy is the sum of the following terms:
     one-electron contribution =    -149.94848347 Ry
     hartree contribution      =     104.65319164 Ry
     xc contribution           =     -82.61305447 Ry
     ewald contribution        =    -199.82515346 Ry
     one-center paw contrib.   =   -1137.13461070 Ry

     convergence has been achieved in  14 iterations

     Writing all to output data dir ../../tmp/cspbf3.save/

     init_run     :      5.19s CPU      5.45s WALL (       1 calls)
     electrons    :    154.97s CPU    160.39s WALL (       1 calls)

     Called by init_run:
     wfcinit      :      2.90s CPU      2.99s WALL (       1 calls)
     potinit      :      1.05s CPU      1.10s WALL (       1 calls)
     hinit0       :      0.58s CPU      0.60s WALL (       1 calls)

     Called by electrons:
     c_bands      :    113.23s CPU    115.69s WALL (      14 calls)
     sum_band     :     21.68s CPU     23.34s WALL (      14 calls)
     v_of_rho     :      1.43s CPU      1.48s WALL (      15 calls)
     newd         :      7.81s CPU      9.06s WALL (      15 calls)
     PAW_pot      :     11.98s CPU     12.04s WALL (      15 calls)
     mix_rho      :      0.15s CPU      0.17s WALL (      14 calls)

     Called by c_bands:
     init_us_2    :      1.54s CPU      1.57s WALL (    1015 calls)
     init_us_2:cp :      1.54s CPU      1.57s WALL (    1015 calls)
     cegterg      :    108.06s CPU    110.45s WALL (     490 calls)

     Called by *egterg:
     cdiaghg      :      1.82s CPU      1.83s WALL (    2355 calls)
     h_psi        :     72.80s CPU     75.14s WALL (    2390 calls)
     s_psi        :      9.15s CPU      9.18s WALL (    2390 calls)
     g_psi        :      0.24s CPU      0.24s WALL (    1865 calls)

     Called by h_psi:
     h_psi:calbec :     14.03s CPU     14.13s WALL (    2390 calls)
     vloc_psi     :     49.48s CPU     51.68s WALL (    2390 calls)
     add_vuspsi   :      9.17s CPU      9.20s WALL (    2390 calls)

     General routines
     calbec       :     18.59s CPU     18.70s WALL (    2880 calls)
     fft          :      0.77s CPU      0.82s WALL (     193 calls)
     ffts         :      0.03s CPU      0.04s WALL (      29 calls)
     fftw         :     52.48s CPU     54.77s WALL (   76526 calls)
     interpolate  :      0.08s CPU      0.09s WALL (      15 calls)

     Parallel routines

     PWSCF        :   2m40.81s CPU   2m47.28s WALL


   This run was terminated on:   0:37: 9  18Jun2026            

=------------------------------------------------------------------------------=
   JOB DONE.
=------------------------------------------------------------------------------=
