
     Program PWSCF v.7.2 starts on 18Jun2026 at  0:46: 9 

     This program is part of the open-source Quantum ESPRESSO suite
     for quantum simulation of materials; please cite
         "P. Giannozzi et al., J. Phys.:Condens. Matter 21 395502 (2009);
         "P. Giannozzi et al., J. Phys.:Condens. Matter 29 465901 (2017);
         "P. Giannozzi et al., J. Chem. Phys. 152 154105 (2020);
          URL http://www.quantum-espresso.org", 
     in publications or presentations arising from this work. More details at
     http://www.quantum-espresso.org/quote

     Parallel version (MPI), running on     4 processors

     MPI processes distributed on     1 nodes
     141371 MiB available memory on the printing compute node when the environment starts

     Waiting for input...
     Reading input from standard input

     Current dimensions of program PWSCF are:
     Max number of different atomic species (ntypx) = 10
     Max number of k-points (npk) =  40000
     Max angular momentum in pseudopotentials (lmaxx) =  4

     Atomic positions and unit cell read from directory:
     ../../tmp/cspbf3.save/

     file Cs.pbe-spn-kjpaw_psl.1.0.0.UPF: wavefunction(s)  5S 6S renormalized
     file Pb.pbe-dn-kjpaw_psl.1.0.0.UPF: wavefunction(s)  6S 6P 5D renormalized
     file F.pbe-n-kjpaw_psl.1.0.0.UPF: wavefunction(s)  2S 2P renormalized

     R & G space division:  proc/nbgrp/npool/nimage =       4
     Subspace diagonalization in iterative solution of the eigenvalue problem:
     a serial algorithm will be used


     Parallelization info
     --------------------
     sticks:   dense  smooth     PW     G-vecs:    dense   smooth      PW
     Min        1093     546    154                54413    19238    2908
     Max        1094     547    156                54418    19243    2909
     Sum        4373    2185    621               217663    76957   11633

     Using Slab Decomposition



     bravais-lattice index     =            1
     lattice parameter (alat)  =       9.2729  a.u.
     unit-cell volume          =     797.3536 (a.u.)^3
     number of atoms/cell      =            5
     number of atomic types    =            3
     number of electrons       =        44.00
     number of Kohn-Sham states=           40
     kinetic-energy cutoff     =      80.0000  Ry
     charge density cutoff     =     640.0000  Ry
     Exchange-correlation= SLA  PW   PBX  PBC
                           (   1   4   3   4   0   0   0)

     celldm(1)=   9.272930  celldm(2)=   0.000000  celldm(3)=   0.000000
     celldm(4)=   0.000000  celldm(5)=   0.000000  celldm(6)=   0.000000

     crystal axes: (cart. coord. in units of alat)
               a(1) = (   1.000000   0.000000   0.000000 )  
               a(2) = (   0.000000   1.000000   0.000000 )  
               a(3) = (   0.000000   0.000000   1.000000 )  

     reciprocal axes: (cart. coord. in units 2 pi/alat)
               b(1) = (  1.000000  0.000000  0.000000 )  
               b(2) = (  0.000000  1.000000  0.000000 )  
               b(3) = (  0.000000  0.000000  1.000000 )  


     PseudoPot. # 1 for Cs read from file:
     ../../pseudo/Cs.pbe-spn-kjpaw_psl.1.0.0.UPF
     MD5 check sum: b82c75cc2e1f4ff73b6412cffeb9c584
     Pseudo is Projector augmented-wave + core cor, Zval =  9.0
     Generated using &quot;atomic&quot; code by A. Dal Corso  v.6.4.1
     Shape of augmentation charge: PSQ
     Using radial grid of 1251 points,  9 beta functions with: 
                l(1) =   0
                l(2) =   0
                l(3) =   0
                l(4) =   1
                l(5) =   1
                l(6) =   2
                l(7) =   2
                l(8) =   3
                l(9) =   3
     Q(r) pseudized with 0 coefficients 


     PseudoPot. # 2 for Pb read from file:
     ../../pseudo/Pb.pbe-dn-kjpaw_psl.1.0.0.UPF
     MD5 check sum: 8dd1fa6bc87c0adeb4efb5a3e91ed847
     Pseudo is Projector augmented-wave + core cor, Zval = 14.0
     Generated using &quot;atomic&quot; code by A. Dal Corso  v.6.3
     Shape of augmentation charge: PSQ
     Using radial grid of 1281 points,  6 beta functions with: 
                l(1) =   0
                l(2) =   0
                l(3) =   1
                l(4) =   1
                l(5) =   2
                l(6) =   2
     Q(r) pseudized with 0 coefficients 


     PseudoPot. # 3 for F  read from file:
     ../../pseudo/F.pbe-n-kjpaw_psl.1.0.0.UPF
     MD5 check sum: 66d718ea72839a4268ab2a9540e8cdd4
     Pseudo is Projector augmented-wave + core cor, Zval =  7.0
     Generated using &quot;atomic&quot; code by A. Dal Corso  v.6.3
     Shape of augmentation charge: PSQ
     Using radial grid of 1105 points,  4 beta functions with: 
                l(1) =   0
                l(2) =   0
                l(3) =   1
                l(4) =   1
     Q(r) pseudized with 0 coefficients 


     atomic species   valence    mass     pseudopotential
        Cs             9.00   132.91000     Cs( 1.00)
        Pb            14.00   207.20000     Pb( 1.00)
        F              7.00    18.99800     F ( 1.00)

     48 Sym. Ops., with inversion, found



   Cartesian axes

     site n.     atom                  positions (alat units)
         1           Pb  tau(   1) = (   0.0000000   0.0000000   0.0000000  )
         2           Cs  tau(   2) = (   0.5000000   0.5000000   0.5000000  )
         3           F   tau(   3) = (   0.0000000   0.5000000   0.0000000  )
         4           F   tau(   4) = (   0.5000000   0.0000000   0.0000000  )
         5           F   tau(   5) = (   0.0000000   0.0000000   0.5000000  )

     number of k points=   151

     Number of k-points >= 100: set verbosity='high' to print them.

     Dense  grid:   217663 G-vectors     FFT dimensions: (  75,  75,  75)

     Smooth grid:    76957 G-vectors     FFT dimensions: (  54,  54,  54)

     Estimated max dynamical RAM per process >     531.30 MB

     Estimated total dynamical RAM >       2.08 GB

     The potential is recalculated from file :
     ../../tmp/cspbf3.save/charge-density

     Starting wfcs are   26 randomized atomic wfcs +   14 random wfcs
     Checking if some PAW data can be deallocated... 

     Band Structure Calculation
     Davidson diagonalization with overlap
     c_bands:  1 eigenvalues not converged
     c_bands:  1 eigenvalues not converged
     c_bands:  1 eigenvalues not converged
     c_bands:  1 eigenvalues not converged
     c_bands:  1 eigenvalues not converged
     c_bands:  1 eigenvalues not converged
     c_bands:  1 eigenvalues not converged
     c_bands:  1 eigenvalues not converged
     c_bands:  1 eigenvalues not converged
     c_bands:  1 eigenvalues not converged
     c_bands:  1 eigenvalues not converged
     c_bands:  1 eigenvalues not converged

     ethr =  2.27E-11,  avg # of iterations = 89.2

     total cpu time spent up to now is     1532.5 secs

     End of band structure calculation

     Number of k-points >= 100: set verbosity='high' to print the bands.

     Writing all to output data dir ../../tmp/cspbf3.save/

     init_run     :      2.19s CPU      2.40s WALL (       1 calls)
     electrons    :   1504.61s CPU   1529.53s WALL (       1 calls)

     Called by init_run:
     wfcinit      :      0.00s CPU      0.00s WALL (       1 calls)
     potinit      :      0.92s CPU      0.96s WALL (       1 calls)
     hinit0       :      0.58s CPU      0.60s WALL (       1 calls)

     Called by electrons:
     c_bands      :   1504.61s CPU   1529.53s WALL (       1 calls)
     v_of_rho     :      0.09s CPU      0.11s WALL (       1 calls)
     newd         :      0.52s CPU      0.66s WALL (       1 calls)
     PAW_pot      :      0.81s CPU      0.84s WALL (       1 calls)

     Called by c_bands:
     init_us_2    :      0.21s CPU      0.24s WALL (     151 calls)
     init_us_2:cp :      0.21s CPU      0.24s WALL (     151 calls)
     cegterg      :   1483.36s CPU   1507.72s WALL (     740 calls)

     Called by *egterg:
     cdiaghg      :     47.80s CPU     47.96s WALL (   13627 calls)
     h_psi        :    724.54s CPU    746.99s WALL (   14367 calls)
     s_psi        :     91.17s CPU     91.47s WALL (   14367 calls)
     g_psi        :      3.32s CPU      3.34s WALL (   13476 calls)

     Called by h_psi:
     h_psi:calbec :    139.35s CPU    140.05s WALL (   14367 calls)
     vloc_psi     :    492.57s CPU    514.01s WALL (   14367 calls)
     add_vuspsi   :     91.28s CPU     91.58s WALL (   14367 calls)

     General routines
     calbec       :    139.31s CPU    140.03s WALL (   14367 calls)
     fft          :      0.05s CPU      0.06s WALL (      13 calls)
     ffts         :      0.00s CPU      0.00s WALL (       1 calls)
     fftw         :    449.79s CPU    469.20s WALL (  651622 calls)
     interpolate  :      0.01s CPU      0.01s WALL (       1 calls)
     davcio       :      0.06s CPU      0.18s WALL (     302 calls)

     Parallel routines

     PWSCF        :  25m 7.89s CPU  25m34.65s WALL


   This run was terminated on:   1:11:44  18Jun2026            

=------------------------------------------------------------------------------=
   JOB DONE.
=------------------------------------------------------------------------------=
