
     Program PWSCF v.7.2 starts on 17Jun2026 at 23: 2: 5 

     This program is part of the open-source Quantum ESPRESSO suite
     for quantum simulation of materials; please cite
         "P. Giannozzi et al., J. Phys.:Condens. Matter 21 395502 (2009);
         "P. Giannozzi et al., J. Phys.:Condens. Matter 29 465901 (2017);
         "P. Giannozzi et al., J. Chem. Phys. 152 154105 (2020);
          URL http://www.quantum-espresso.org", 
     in publications or presentations arising from this work. More details at
     http://www.quantum-espresso.org/quote

     Parallel version (MPI), running on     4 processors

     MPI processes distributed on     1 nodes
     143377 MiB available memory on the printing compute node when the environment starts

     Waiting for input...
     Reading input from standard input

     Current dimensions of program PWSCF are:
     Max number of different atomic species (ntypx) = 10
     Max number of k-points (npk) =  40000
     Max angular momentum in pseudopotentials (lmaxx) =  4
     file Cs.pbe-spn-kjpaw_psl.1.0.0.UPF: wavefunction(s)  5S 6S renormalized
     file Pb.pbe-dn-kjpaw_psl.1.0.0.UPF: wavefunction(s)  6S 6P 5D renormalized
     file F.pbe-n-kjpaw_psl.1.0.0.UPF: wavefunction(s)  2S 2P renormalized

     R & G space division:  proc/nbgrp/npool/nimage =       4
     Subspace diagonalization in iterative solution of the eigenvalue problem:
     a serial algorithm will be used


     Parallelization info
     --------------------
     sticks:   dense  smooth     PW     G-vecs:    dense   smooth      PW
     Min        1059     527    148                52041    18361    2768
     Max        1060     528    149                52042    18363    2771
     Sum        4237    2109    593               208165    73447   11075

     Using Slab Decomposition



     bravais-lattice index     =            1
     lattice parameter (alat)  =       9.1270  a.u.
     unit-cell volume          =     760.2985 (a.u.)^3
     number of atoms/cell      =            5
     number of atomic types    =            3
     number of electrons       =        44.00
     number of Kohn-Sham states=           22
     kinetic-energy cutoff     =      80.0000  Ry
     charge density cutoff     =     640.0000  Ry
     scf convergence threshold =      1.0E-08
     mixing beta               =       0.3000
     number of iterations used =            8  plain     mixing
     energy convergence thresh.=      1.0E-04
     force convergence thresh. =      1.0E-03
     press convergence thresh. =      5.0E-01
     Exchange-correlation= SLA  PW   PBX  PBC
                           (   1   4   3   4   0   0   0)
     nstep                     =           50


     celldm(1)=   9.127000  celldm(2)=   0.000000  celldm(3)=   0.000000
     celldm(4)=   0.000000  celldm(5)=   0.000000  celldm(6)=   0.000000

     crystal axes: (cart. coord. in units of alat)
               a(1) = (   1.000000   0.000000   0.000000 )  
               a(2) = (   0.000000   1.000000   0.000000 )  
               a(3) = (   0.000000   0.000000   1.000000 )  

     reciprocal axes: (cart. coord. in units 2 pi/alat)
               b(1) = (  1.000000  0.000000  0.000000 )  
               b(2) = (  0.000000  1.000000  0.000000 )  
               b(3) = (  0.000000  0.000000  1.000000 )  


     PseudoPot. # 1 for Cs read from file:
     ../../pseudo/Cs.pbe-spn-kjpaw_psl.1.0.0.UPF
     MD5 check sum: b82c75cc2e1f4ff73b6412cffeb9c584
     Pseudo is Projector augmented-wave + core cor, Zval =  9.0
     Generated using &quot;atomic&quot; code by A. Dal Corso  v.6.4.1
     Shape of augmentation charge: PSQ
     Using radial grid of 1251 points,  9 beta functions with: 
                l(1) =   0
                l(2) =   0
                l(3) =   0
                l(4) =   1
                l(5) =   1
                l(6) =   2
                l(7) =   2
                l(8) =   3
                l(9) =   3
     Q(r) pseudized with 0 coefficients 


     PseudoPot. # 2 for Pb read from file:
     ../../pseudo/Pb.pbe-dn-kjpaw_psl.1.0.0.UPF
     MD5 check sum: 8dd1fa6bc87c0adeb4efb5a3e91ed847
     Pseudo is Projector augmented-wave + core cor, Zval = 14.0
     Generated using &quot;atomic&quot; code by A. Dal Corso  v.6.3
     Shape of augmentation charge: PSQ
     Using radial grid of 1281 points,  6 beta functions with: 
                l(1) =   0
                l(2) =   0
                l(3) =   1
                l(4) =   1
                l(5) =   2
                l(6) =   2
     Q(r) pseudized with 0 coefficients 


     PseudoPot. # 3 for F  read from file:
     ../../pseudo/F.pbe-n-kjpaw_psl.1.0.0.UPF
     MD5 check sum: 66d718ea72839a4268ab2a9540e8cdd4
     Pseudo is Projector augmented-wave + core cor, Zval =  7.0
     Generated using &quot;atomic&quot; code by A. Dal Corso  v.6.3
     Shape of augmentation charge: PSQ
     Using radial grid of 1105 points,  4 beta functions with: 
                l(1) =   0
                l(2) =   0
                l(3) =   1
                l(4) =   1
     Q(r) pseudized with 0 coefficients 


     atomic species   valence    mass     pseudopotential
        Cs             9.00   132.91000     Cs( 1.00)
        Pb            14.00   207.20000     Pb( 1.00)
        F              7.00    18.99800     F ( 1.00)

     48 Sym. Ops., with inversion, found



   Cartesian axes

     site n.     atom                  positions (alat units)
         1           Pb  tau(   1) = (   0.0000000   0.0000000   0.0000000  )
         2           Cs  tau(   2) = (   0.5000000   0.5000000   0.5000000  )
         3           F   tau(   3) = (   0.0000000   0.5000000   0.0000000  )
         4           F   tau(   4) = (   0.5000000   0.0000000   0.0000000  )
         5           F   tau(   5) = (   0.0000000   0.0000000   0.5000000  )

     number of k points=    35
                       cart. coord. in units 2pi/alat
        k(    1) = (   0.0000000   0.0000000   0.0000000), wk =   0.0039062
        k(    2) = (   0.0000000   0.0000000   0.1250000), wk =   0.0234375
        k(    3) = (   0.0000000   0.0000000   0.2500000), wk =   0.0234375
        k(    4) = (   0.0000000   0.0000000   0.3750000), wk =   0.0234375
        k(    5) = (   0.0000000   0.0000000  -0.5000000), wk =   0.0117188
        k(    6) = (   0.0000000   0.1250000   0.1250000), wk =   0.0468750
        k(    7) = (   0.0000000   0.1250000   0.2500000), wk =   0.0937500
        k(    8) = (   0.0000000   0.1250000   0.3750000), wk =   0.0937500
        k(    9) = (   0.0000000   0.1250000  -0.5000000), wk =   0.0468750
        k(   10) = (   0.0000000   0.2500000   0.2500000), wk =   0.0468750
        k(   11) = (   0.0000000   0.2500000   0.3750000), wk =   0.0937500
        k(   12) = (   0.0000000   0.2500000  -0.5000000), wk =   0.0468750
        k(   13) = (   0.0000000   0.3750000   0.3750000), wk =   0.0468750
        k(   14) = (   0.0000000   0.3750000  -0.5000000), wk =   0.0468750
        k(   15) = (   0.0000000  -0.5000000  -0.5000000), wk =   0.0117188
        k(   16) = (   0.1250000   0.1250000   0.1250000), wk =   0.0312500
        k(   17) = (   0.1250000   0.1250000   0.2500000), wk =   0.0937500
        k(   18) = (   0.1250000   0.1250000   0.3750000), wk =   0.0937500
        k(   19) = (   0.1250000   0.1250000  -0.5000000), wk =   0.0468750
        k(   20) = (   0.1250000   0.2500000   0.2500000), wk =   0.0937500
        k(   21) = (   0.1250000   0.2500000   0.3750000), wk =   0.1875000
        k(   22) = (   0.1250000   0.2500000  -0.5000000), wk =   0.0937500
        k(   23) = (   0.1250000   0.3750000   0.3750000), wk =   0.0937500
        k(   24) = (   0.1250000   0.3750000  -0.5000000), wk =   0.0937500
        k(   25) = (   0.1250000  -0.5000000  -0.5000000), wk =   0.0234375
        k(   26) = (   0.2500000   0.2500000   0.2500000), wk =   0.0312500
        k(   27) = (   0.2500000   0.2500000   0.3750000), wk =   0.0937500
        k(   28) = (   0.2500000   0.2500000  -0.5000000), wk =   0.0468750
        k(   29) = (   0.2500000   0.3750000   0.3750000), wk =   0.0937500
        k(   30) = (   0.2500000   0.3750000  -0.5000000), wk =   0.0937500
        k(   31) = (   0.2500000  -0.5000000  -0.5000000), wk =   0.0234375
        k(   32) = (   0.3750000   0.3750000   0.3750000), wk =   0.0312500
        k(   33) = (   0.3750000   0.3750000  -0.5000000), wk =   0.0468750
        k(   34) = (   0.3750000  -0.5000000  -0.5000000), wk =   0.0234375
        k(   35) = (  -0.5000000  -0.5000000  -0.5000000), wk =   0.0039062

     Dense  grid:   208165 G-vectors     FFT dimensions: (  75,  75,  75)

     Smooth grid:    73447 G-vectors     FFT dimensions: (  54,  54,  54)

     Estimated max dynamical RAM per process >     587.16 MB

     Estimated total dynamical RAM >       2.29 GB

     Initial potential from superposition of free atoms

     starting charge      43.9580, renormalised to      44.0000
     Starting wfcs are   26 randomized atomic wfcs
     Checking if some PAW data can be deallocated... 

     total cpu time spent up to now is       12.4 secs

     Self-consistent Calculation

     iteration #  1     ecut=    80.00 Ry     beta= 0.30
     Davidson diagonalization with overlap
     ethr =  1.00E-02,  avg # of iterations =  1.0

     total cpu time spent up to now is       20.6 secs

     total energy              =   -1464.67486522 Ry
     estimated scf accuracy    <       0.83088189 Ry

     iteration #  2     ecut=    80.00 Ry     beta= 0.30
     Davidson diagonalization with overlap
     ethr =  1.89E-03,  avg # of iterations =  2.0

     total cpu time spent up to now is       30.3 secs

     total energy              =   -1464.83278791 Ry
     estimated scf accuracy    <       0.05153167 Ry

     iteration #  3     ecut=    80.00 Ry     beta= 0.30
     Davidson diagonalization with overlap
     ethr =  1.17E-04,  avg # of iterations =  5.4

     total cpu time spent up to now is       44.1 secs

     total energy              =   -1464.85907734 Ry
     estimated scf accuracy    <       0.02328195 Ry

     iteration #  4     ecut=    80.00 Ry     beta= 0.30
     Davidson diagonalization with overlap
     ethr =  5.29E-05,  avg # of iterations =  3.3

     total cpu time spent up to now is       54.5 secs

     total energy              =   -1464.86394162 Ry
     estimated scf accuracy    <       0.01272584 Ry

     iteration #  5     ecut=    80.00 Ry     beta= 0.30
     Davidson diagonalization with overlap
     ethr =  2.89E-05,  avg # of iterations =  2.0

     total cpu time spent up to now is       64.0 secs

     total energy              =   -1464.86413911 Ry
     estimated scf accuracy    <       0.00149887 Ry

     iteration #  6     ecut=    80.00 Ry     beta= 0.30
     Davidson diagonalization with overlap
     ethr =  3.41E-06,  avg # of iterations =  5.9

     total cpu time spent up to now is       78.1 secs

     total energy              =   -1464.86428724 Ry
     estimated scf accuracy    <       0.00416196 Ry

     iteration #  7     ecut=    80.00 Ry     beta= 0.30
     Davidson diagonalization with overlap
     ethr =  3.41E-06,  avg # of iterations =  4.1

     total cpu time spent up to now is       89.6 secs

     total energy              =   -1464.86543801 Ry
     estimated scf accuracy    <       0.00025487 Ry

     iteration #  8     ecut=    80.00 Ry     beta= 0.30
     Davidson diagonalization with overlap
     ethr =  5.79E-07,  avg # of iterations =  2.0

     total cpu time spent up to now is       99.3 secs

     total energy              =   -1464.86548048 Ry
     estimated scf accuracy    <       0.00002965 Ry

     iteration #  9     ecut=    80.00 Ry     beta= 0.30
     Davidson diagonalization with overlap
     ethr =  6.74E-08,  avg # of iterations =  2.8

     total cpu time spent up to now is      108.6 secs

     total energy              =   -1464.86546441 Ry
     estimated scf accuracy    <       0.00004243 Ry

     iteration # 10     ecut=    80.00 Ry     beta= 0.30
     Davidson diagonalization with overlap
     ethr =  6.74E-08,  avg # of iterations =  4.2

     total cpu time spent up to now is      119.2 secs

     total energy              =   -1464.86547387 Ry
     estimated scf accuracy    <       0.00000011 Ry

     iteration # 11     ecut=    80.00 Ry     beta= 0.30
     Davidson diagonalization with overlap
     ethr =  2.40E-10,  avg # of iterations = 10.7

     total cpu time spent up to now is      144.9 secs

     total energy              =   -1464.86547480 Ry
     estimated scf accuracy    <       0.00000036 Ry

     iteration # 12     ecut=    80.00 Ry     beta= 0.30
     Davidson diagonalization with overlap
     ethr =  2.40E-10,  avg # of iterations =  1.0

     total cpu time spent up to now is      153.0 secs

     total energy              =   -1464.86547467 Ry
     estimated scf accuracy    <       0.00000032 Ry

     iteration # 13     ecut=    80.00 Ry     beta= 0.30
     Davidson diagonalization with overlap
     ethr =  2.40E-10,  avg # of iterations =  3.1

     total cpu time spent up to now is      164.6 secs

     total energy              =   -1464.86547475 Ry
     estimated scf accuracy    <       0.00000003 Ry

     iteration # 14     ecut=    80.00 Ry     beta= 0.30
     Davidson diagonalization with overlap
     ethr =  6.64E-11,  avg # of iterations =  5.7

     total cpu time spent up to now is      177.2 secs

     total energy              =   -1464.86547483 Ry
     estimated scf accuracy    <       0.00000023 Ry

     iteration # 15     ecut=    80.00 Ry     beta= 0.30
     Davidson diagonalization with overlap
     ethr =  6.64E-11,  avg # of iterations =  2.8

     total cpu time spent up to now is      187.3 secs

     total energy              =   -1464.86547484 Ry
     estimated scf accuracy    <       0.00000038 Ry

     iteration # 16     ecut=    80.00 Ry     beta= 0.30
     Davidson diagonalization with overlap
     ethr =  6.64E-11,  avg # of iterations =  1.1

     total cpu time spent up to now is      195.5 secs

     total energy              =   -1464.86547481 Ry
     estimated scf accuracy    <       0.00000040 Ry

     iteration # 17     ecut=    80.00 Ry     beta= 0.30
     Davidson diagonalization with overlap
     ethr =  6.64E-11,  avg # of iterations =  1.2

     total cpu time spent up to now is      203.7 secs

     total energy              =   -1464.86547481 Ry
     estimated scf accuracy    <       0.00000033 Ry

     iteration # 18     ecut=    80.00 Ry     beta= 0.30
     Davidson diagonalization with overlap
     ethr =  6.64E-11,  avg # of iterations =  1.0

     total cpu time spent up to now is      211.9 secs

     total energy              =   -1464.86547467 Ry
     estimated scf accuracy    <       0.00000033 Ry

     iteration # 19     ecut=    80.00 Ry     beta= 0.30
     Davidson diagonalization with overlap
     ethr =  6.64E-11,  avg # of iterations =  5.1

     total cpu time spent up to now is      224.1 secs

     End of self-consistent calculation

          k = 0.0000 0.0000 0.0000 (  9093 PWs)   bands (ev):

   -16.9442 -16.7697 -16.7697 -15.4904 -10.4022 -10.4022 -10.4022 -10.1497
   -10.1497  -2.3698  -2.3698  -2.3698  -0.3176   0.4029   0.4029   0.4029
     1.9665   1.9665   1.9665   2.0860   2.0860   2.0860

          k = 0.0000 0.0000 0.1250 (  9186 PWs)   bands (ev):

   -16.9326 -16.7695 -16.7659 -15.4932 -10.4035 -10.4035 -10.4022 -10.1850
   -10.1497  -2.3959  -2.3563  -2.3563  -0.7486   0.4022   0.4022   0.9457
     1.9528   1.9591   1.9591   2.0748   2.0748   2.1327

          k = 0.0000 0.0000 0.2500 (  9158 PWs)   bands (ev):

   -16.9045 -16.7691 -16.7566 -15.5001 -10.4065 -10.4065 -10.4021 -10.2702
   -10.1497  -2.4630  -2.3231  -2.3231  -1.2102   0.3988   0.3988   1.4609
     1.9200   1.9434   1.9434   2.0470   2.0470   2.5119

          k = 0.0000 0.0000 0.3750 (  9138 PWs)   bands (ev):

   -16.8759 -16.7688 -16.7472 -15.5070 -10.4095 -10.4095 -10.4020 -10.3555
   -10.1497  -2.5356  -2.2890  -2.2890  -1.4754   0.3928   0.3928   1.5473
     1.8878   1.9327   1.9327   2.0163   2.0163   3.2217

          k = 0.0000 0.0000-0.5000 (  9122 PWs)   bands (ev):

   -16.8640 -16.7686 -16.7432 -15.5098 -10.4108 -10.4108 -10.4020 -10.3909
   -10.1497  -2.5671  -2.2745  -2.2745  -1.5585   0.3895   0.3895   1.5455
     1.8747   1.9311   1.9311   2.0014   2.0014   3.5701

          k = 0.0000 0.1250 0.1250 (  9179 PWs)   bands (ev):

   -16.9213 -16.7675 -16.7639 -15.4958 -10.4047 -10.4035 -10.4034 -10.2022
   -10.1675  -2.3868  -2.3839  -2.3436  -1.0402   0.4040   0.5886   1.1379
     1.9163   1.9515   1.9795   2.0626   2.0990   2.1810

          k = 0.0000 0.1250 0.2500 (  9173 PWs)   bands (ev):

   -16.8937 -16.7663 -16.7552 -15.5021 -10.4076 -10.4065 -10.4033 -10.2800
   -10.1741  -2.4604  -2.3578  -2.3124  -1.4416   0.4069   0.6797   1.4614
     1.8767   1.9349   1.9799   2.0322   2.0877   2.6129

          k = 0.0000 0.1250 0.3750 (  9170 PWs)   bands (ev):

   -16.8660 -16.7657 -16.7454 -15.5084 -10.4106 -10.4095 -10.4032 -10.3638
   -10.1751  -2.5424  -2.3251  -2.2804  -1.6944   0.4076   0.7015   1.5368
     1.8610   1.9237   1.9622   1.9984   2.0637   3.3158

          k = 0.0000 0.1250-0.5000 (  9176 PWs)   bands (ev):

   -16.8545 -16.7654 -16.7412 -15.5110 -10.4118 -10.4107 -10.4032 -10.3987
   -10.1753  -2.5781  -2.3090  -2.2668  -1.7783   0.4071   0.7066   1.5396
     1.8631   1.9224   1.9485   1.9816   2.0527   3.6586

          k = 0.0000 0.2500 0.2500 (  9182 PWs)   bands (ev):

   -16.8680 -16.7605 -16.7497 -15.5069 -10.4104 -10.4064 -10.4062 -10.3255
   -10.2116  -2.4669  -2.4308  -2.2861  -1.8034   0.4259   1.0698   1.4838
     1.8336   1.9156   1.9958   2.0087   2.1388   3.0192

          k = 0.0000 0.2500 0.3750 (  9177 PWs)   bands (ev):

   -16.8438 -16.7561 -16.7409 -15.5117 -10.4131 -10.4093 -10.4061 -10.3947
   -10.2256  -2.5599  -2.4126  -2.2592  -2.0528   0.4438   1.2430   1.5137
     1.8444   1.9013   1.9551   2.0055   2.1456   3.6332

          k = 0.0000 0.2500-0.5000 (  9158 PWs)   bands (ev):

   -16.8344 -16.7544 -16.7363 -15.5137 -10.4264 -10.4142 -10.4105 -10.4061
   -10.2285  -2.6047  -2.3896  -2.2479  -2.1466   0.4509   1.2864   1.5135
     1.8798   1.9003   1.9338   1.9858   2.1417   3.9471

          k = 0.0000 0.3750 0.3750 (  9198 PWs)   bands (ev):

   -16.8254 -16.7432 -16.7353 -15.5150 -10.4446 -10.4156 -10.4091 -10.4090
   -10.2576  -2.5976  -2.4778  -2.3033  -2.2377   0.4809   1.4897   1.6171
     1.8677   1.8804   1.9097   2.0216   2.1994   4.1197

          k = 0.0000 0.3750-0.5000 (  9186 PWs)   bands (ev):

   -16.8193 -16.7379 -16.7313 -15.5164 -10.4700 -10.4166 -10.4103 -10.4090
   -10.2661  -2.6318  -2.4668  -2.4082  -2.2287   0.4964   1.4803   1.7257
     1.8764   1.8859   1.9174   2.0023   2.2143   4.3867

          k = 0.0000-0.5000-0.5000 (  9220 PWs)   bands (ev):

   -16.8146 -16.7293 -16.7293 -15.5175 -10.4928 -10.4176 -10.4102 -10.4102
   -10.2772  -2.6438  -2.4980  -2.4980  -2.2206   0.5159   1.4660   1.8660
     1.8660   1.9351   1.9351   1.9455   2.2420   4.6326

          k = 0.1250 0.1250 0.1250 (  9195 PWs)   bands (ev):

   -16.9100 -16.7637 -16.7637 -15.4982 -10.4047 -10.4047 -10.4047 -10.2022
   -10.2022  -2.3768  -2.3768  -2.3740  -1.2760   0.5896   0.5896   1.2561
     1.9121   1.9121   2.0068   2.0885   2.0885   2.2574

          k = 0.1250 0.1250 0.2500 (  9185 PWs)   bands (ev):

   -16.8827 -16.7633 -16.7542 -15.5038 -10.4077 -10.4075 -10.4046 -10.2860
   -10.2021  -2.4602  -2.3523  -2.3494  -1.6360   0.5908   0.7520   1.4617
     1.8696   1.9006   2.0149   2.0694   2.0815   2.7170

          k = 0.1250 0.1250 0.3750 (  9165 PWs)   bands (ev):

   -16.8556 -16.7629 -16.7440 -15.5093 -10.4108 -10.4103 -10.4045 -10.3701
   -10.2021  -2.5539  -2.3274  -2.3128  -1.8771   0.5899   0.8124   1.5330
     1.8490   1.9003   1.9889   2.0405   2.0646   3.4077

          k = 0.1250 0.1250-0.5000 (  9172 PWs)   bands (ev):

   -16.8445 -16.7627 -16.7394 -15.5117 -10.4121 -10.4114 -10.4050 -10.4044
   -10.2020  -2.5948  -2.3170  -2.2905  -1.9630   0.5889   0.8300   1.5427
     1.8458   1.9114   1.9715   2.0118   2.0644   3.7451

          k = 0.1250 0.2500 0.2500 (  9176 PWs)   bands (ev):

   -16.8568 -16.7574 -16.7495 -15.5077 -10.4104 -10.4075 -10.4075 -10.3255
   -10.2448  -2.4818  -2.4286  -2.3336  -1.9520   0.6631   1.0755   1.4850
     1.8386   1.8822   2.0424   2.0493   2.1310   3.1176

          k = 0.1250 0.2500 0.3750 (  9175 PWs)   bands (ev):

   -16.8323 -16.7543 -16.7401 -15.5117 -10.4132 -10.4104 -10.4074 -10.3964
   -10.2564  -2.5935  -2.4170  -2.3134  -2.1707   0.6850   1.2654   1.5288
     1.8344   1.8791   2.0081   2.0452   2.1420   3.7180

          k = 0.1250 0.2500-0.5000 (  9176 PWs)   bands (ev):

   -16.8229 -16.7532 -16.7351 -15.5133 -10.4288 -10.4144 -10.4116 -10.4074
   -10.2583  -2.6469  -2.3932  -2.2878  -2.2734   0.6925   1.3188   1.5398
     1.8445   1.8923   2.0019   2.0140   2.1422   4.0274

          k = 0.1250 0.3750 0.3750 (  9211 PWs)   bands (ev):

   -16.8132 -16.7421 -16.7350 -15.5141 -10.4445 -10.4158 -10.4104 -10.4103
   -10.2894  -2.6812  -2.4827  -2.3831  -2.2773   0.7292   1.5287   1.6271
     1.8377   1.8684   1.9879   2.0557   2.1987   4.1960

          k = 0.1250 0.3750-0.5000 (  9202 PWs)   bands (ev):

   -16.8068 -16.7375 -16.7308 -15.5151 -10.4702 -10.4168 -10.4116 -10.4103
   -10.2975  -2.7347  -2.4733  -2.4587  -2.2776   0.7461   1.5306   1.7344
     1.8492   1.8781   1.9937   2.0338   2.2149   4.4605

          k = 0.1250-0.5000-0.5000 (  9216 PWs)   bands (ev):

   -16.8021 -16.7290 -16.7290 -15.5158 -10.4927 -10.4179 -10.4116 -10.4116
   -10.3084  -2.7851  -2.5056  -2.5056  -2.2732   0.7672   1.5267   1.8460
     1.8460   1.9459   1.9967   1.9967   2.2431   4.7050

          k = 0.2500 0.2500 0.2500 (  9228 PWs)   bands (ev):

   -16.8303 -16.7490 -16.7490 -15.5098 -10.4107 -10.4107 -10.4099 -10.3254
   -10.3254  -2.5708  -2.4234  -2.4234  -2.1757   1.0886   1.0886   1.5107
     1.8453   1.8453   2.1055   2.1108   2.1108   3.4674

          k = 0.2500 0.2500 0.3750 (  9208 PWs)   bands (ev):

   -16.8058 -16.7484 -16.7380 -15.5118 -10.4139 -10.4128 -10.4105 -10.4063
   -10.3253  -2.7337  -2.4452  -2.4183  -2.3117   1.1008   1.3750   1.5701
     1.8312   1.8548   2.0846   2.1115   2.1458   4.0021

          k = 0.2500 0.2500-0.5000 (  9182 PWs)   bands (ev):

   -16.7966 -16.7482 -16.7323 -15.5126 -10.4400 -10.4152 -10.4139 -10.4105
   -10.3253  -2.8034  -2.4390  -2.4162  -2.3660   1.1056   1.4665   1.5961
     1.8300   1.8790   2.0725   2.0827   2.1594   4.2898

          k = 0.2500 0.3750 0.3750 (  9189 PWs)   bands (ev):

   -16.7836 -16.7393 -16.7344 -15.5118 -10.4445 -10.4163 -10.4137 -10.4133
   -10.3666  -2.9153  -2.4945  -2.4606  -2.3768   1.2443   1.6199   1.6520
     1.8318   1.8517   2.1030   2.1259   2.1975   4.4463

          k = 0.2500 0.3750-0.5000 (  9192 PWs)   bands (ev):

   -16.7767 -16.7364 -16.7294 -15.5119 -10.4710 -10.4175 -10.4147 -10.4136
   -10.3731  -2.9884  -2.5060  -2.4890  -2.3895   1.2699   1.6455   1.7609
     1.8351   1.8770   2.1046   2.1120   2.2170   4.6996

          k = 0.2500-0.5000-0.5000 (  9184 PWs)   bands (ev):

   -16.7715 -16.7283 -16.7283 -15.5116 -10.4927 -10.4186 -10.4149 -10.4149
   -10.3842  -3.0616  -2.5239  -2.5239  -2.3932   1.3055   1.6656   1.8376
     1.8376   1.9468   2.1074   2.1074   2.2456   4.9382

          k = 0.3750 0.3750 0.3750 (  9207 PWs)   bands (ev):

   -16.7560 -16.7337 -16.7337 -15.5096 -10.4444 -10.4444 -10.4169 -10.4169
   -10.4161  -3.1250  -2.5063  -2.5063  -2.4636   1.6779   1.6779   1.7113
     1.8419   1.8419   2.1795   2.1795   2.2066   4.8438

          k = 0.3750 0.3750-0.5000 (  9228 PWs)   bands (ev):

   -16.7478 -16.7334 -16.7281 -15.5087 -10.4768 -10.4444 -10.4183 -10.4177
   -10.4169  -3.2025  -2.5325  -2.5111  -2.4878   1.6890   1.7526   1.8124
     1.8388   1.8797   2.1851   2.1919   2.2262   5.0812

          k = 0.3750-0.5000-0.5000 (  9220 PWs)   bands (ev):

   -16.7403 -16.7275 -16.7275 -15.5074 -10.4926 -10.4607 -10.4193 -10.4182
   -10.4182  -3.2808  -2.5419  -2.5419  -2.5051   1.7730   1.7950   1.8425
     1.8425   1.9477   2.2080   2.2080   2.2481   5.3148

          k =-0.5000-0.5000-0.5000 (  9328 PWs)   bands (ev):

   -16.7272 -16.7272 -16.7272 -15.5056 -10.4926 -10.4926 -10.4196 -10.4196
   -10.4196  -3.3602  -2.5493  -2.5493  -2.5493   1.8462   1.8462   1.8462
     1.9480   1.9480   2.2491   2.2491   2.2491   5.5537

     highest occupied level (ev):     5.5537

!    total energy              =   -1464.86547472 Ry
     total all-electron energy =    -57937.800656 Ry
     estimated scf accuracy    <          3.5E-09 Ry

     The total energy is the sum of the following terms:
     one-electron contribution =    -144.93769266 Ry
     hartree contribution      =     102.91320898 Ry
     xc contribution           =     -82.67862803 Ry
     ewald contribution        =    -203.02012274 Ry
     one-center paw contrib.   =   -1137.14224028 Ry

     convergence has been achieved in  19 iterations

     Forces acting on atoms (cartesian axes, Ry/au):

     atom    1 type  2   force =     0.00000000    0.00000000    0.00000000
     atom    2 type  1   force =     0.00000000    0.00000000    0.00000000
     atom    3 type  3   force =     0.00000000    0.00000000    0.00000000
     atom    4 type  3   force =     0.00000000    0.00000000    0.00000000
     atom    5 type  3   force =     0.00000000    0.00000000    0.00000000
     The non-local contrib.  to forces
     atom    1 type  2   force =     0.00000000    0.00000000    0.00000000
     atom    2 type  1   force =     0.00000000    0.00000000    0.00000000
     atom    3 type  3   force =     0.00000000    0.00000000    0.00000000
     atom    4 type  3   force =     0.00000000    0.00000000    0.00000000
     atom    5 type  3   force =     0.00000000    0.00000000    0.00000000
     The ionic contribution  to forces
     atom    1 type  2   force =    -0.00000000   -0.00000000   -0.00000000
     atom    2 type  1   force =     0.00000000    0.00000000    0.00000000
     atom    3 type  3   force =    -0.00000000    0.00000000   -0.00000000
     atom    4 type  3   force =     0.00000000   -0.00000000   -0.00000000
     atom    5 type  3   force =    -0.00000000   -0.00000000    0.00000000
     The local contribution  to forces
     atom    1 type  2   force =    -0.00000000   -0.00000000   -0.00000000
     atom    2 type  1   force =     0.00000000    0.00000000    0.00000000
     atom    3 type  3   force =     0.00000000    0.00000000    0.00000000
     atom    4 type  3   force =     0.00000000    0.00000000    0.00000000
     atom    5 type  3   force =     0.00000000    0.00000000    0.00000000
     The core correction contribution to forces
     atom    1 type  2   force =     0.00000000    0.00000000   -0.00000000
     atom    2 type  1   force =     0.00000000    0.00000000    0.00000000
     atom    3 type  3   force =     0.00000000    0.00000000    0.00000000
     atom    4 type  3   force =     0.00000000    0.00000000    0.00000000
     atom    5 type  3   force =     0.00000000    0.00000000    0.00000000
     The Hubbard contrib.    to forces
     atom    1 type  2   force =     0.00000000    0.00000000    0.00000000
     atom    2 type  1   force =     0.00000000    0.00000000    0.00000000
     atom    3 type  3   force =     0.00000000    0.00000000    0.00000000
     atom    4 type  3   force =     0.00000000    0.00000000    0.00000000
     atom    5 type  3   force =     0.00000000    0.00000000    0.00000000
     The SCF correction term to forces
     atom    1 type  2   force =    -0.00000000   -0.00000000    0.00000000
     atom    2 type  1   force =    -0.00000000   -0.00000000   -0.00000000
     atom    3 type  3   force =    -0.00000000    0.00000000   -0.00000000
     atom    4 type  3   force =     0.00000000   -0.00000000    0.00000000
     atom    5 type  3   force =     0.00000000   -0.00000000    0.00000000

     Total force =     0.000000     Total SCF correction =     0.000000


     Computing stress (Cartesian axis) and pressure

          total   stress  (Ry/bohr**3)                   (kbar)     P=       21.20
   0.00014411   0.00000000   0.00000000           21.20        0.00        0.00
   0.00000000   0.00014411   0.00000000            0.00       21.20        0.00
   0.00000000   0.00000000   0.00014411            0.00        0.00       21.20


     BFGS Geometry Optimization
     Energy error            =      0.0E+00 Ry
     Gradient error          =      0.0E+00 Ry/Bohr
     Cell gradient error     =      2.1E+01 kbar

     number of scf cycles    =   1
     number of bfgs steps    =   0

     enthalpy           new  =   -1464.8654747218 Ry

     new trust radius        =       0.0198685267 bohr
     new conv_thr            =       0.0000000100 Ry

     new unit-cell volume =    768.54585 a.u.^3 (   113.88674 Ang^3 )
     density =      5.79002 g/cm^3

CELL_PARAMETERS (alat=  9.12700000)
   1.003602829   0.000000000   0.000000000
   0.000000000   1.003602829   0.000000000
   0.000000000   0.000000000   1.003602829

ATOMIC_POSITIONS (crystal)
Pb            0.0000000000        0.0000000000        0.0000000000
Cs            0.5000000000        0.5000000000        0.5000000000
F             0.0000000000        0.5000000000        0.0000000000
F             0.5000000000        0.0000000000        0.0000000000
F             0.0000000000        0.0000000000        0.5000000000



     Writing config-only to output data dir ../../tmp/cspbf3.save/
     NEW-OLD atomic charge density approx. for the potential
     extrapolated charge   44.47172, renormalised to   44.00000

     total cpu time spent up to now is      265.6 secs

     Self-consistent Calculation

     iteration #  1     ecut=    80.00 Ry     beta= 0.30
     Davidson diagonalization with overlap
     ethr =  1.00E-06,  avg # of iterations =  7.6

     total cpu time spent up to now is      283.1 secs

     total energy              =   -1464.83546428 Ry
     estimated scf accuracy    <       0.03269357 Ry

     iteration #  2     ecut=    80.00 Ry     beta= 0.30
     Davidson diagonalization with overlap
     ethr =  7.43E-05,  avg # of iterations =  3.2

     total cpu time spent up to now is      294.7 secs

     total energy              =   -1464.86834590 Ry
     estimated scf accuracy    <       0.02543258 Ry

     iteration #  3     ecut=    80.00 Ry     beta= 0.30
     Davidson diagonalization with overlap
     ethr =  5.78E-05,  avg # of iterations =  1.1

     total cpu time spent up to now is      302.9 secs

     total energy              =   -1464.86449737 Ry
     estimated scf accuracy    <       0.01295444 Ry

     iteration #  4     ecut=    80.00 Ry     beta= 0.30
     Davidson diagonalization with overlap
     ethr =  2.94E-05,  avg # of iterations =  3.2

     total cpu time spent up to now is      312.7 secs

     total energy              =   -1464.86637935 Ry
     estimated scf accuracy    <       0.00166388 Ry

     iteration #  5     ecut=    80.00 Ry     beta= 0.30
     Davidson diagonalization with overlap
     ethr =  3.78E-06,  avg # of iterations =  4.5

     total cpu time spent up to now is      322.8 secs

     total energy              =   -1464.86664016 Ry
     estimated scf accuracy    <       0.00090607 Ry

     iteration #  6     ecut=    80.00 Ry     beta= 0.30
     Davidson diagonalization with overlap
     ethr =  2.06E-06,  avg # of iterations =  1.4

     total cpu time spent up to now is      331.3 secs

     total energy              =   -1464.86662809 Ry
     estimated scf accuracy    <       0.00069047 Ry

     iteration #  7     ecut=    80.00 Ry     beta= 0.30
     Davidson diagonalization with overlap
     ethr =  1.57E-06,  avg # of iterations =  1.2

     total cpu time spent up to now is      339.5 secs

     total energy              =   -1464.86642935 Ry
     estimated scf accuracy    <       0.00055527 Ry

     iteration #  8     ecut=    80.00 Ry     beta= 0.30
     Davidson diagonalization with overlap
     ethr =  1.26E-06,  avg # of iterations =  2.7

     total cpu time spent up to now is      349.2 secs

     total energy              =   -1464.86650205 Ry
     estimated scf accuracy    <       0.00005190 Ry

     iteration #  9     ecut=    80.00 Ry     beta= 0.30
     Davidson diagonalization with overlap
     ethr =  1.18E-07,  avg # of iterations =  4.5

     total cpu time spent up to now is      360.2 secs

     total energy              =   -1464.86651901 Ry
     estimated scf accuracy    <       0.00001267 Ry

     iteration # 10     ecut=    80.00 Ry     beta= 0.30
     Davidson diagonalization with overlap
     ethr =  2.88E-08,  avg # of iterations =  2.4

     total cpu time spent up to now is      369.2 secs

     total energy              =   -1464.86651092 Ry
     estimated scf accuracy    <       0.00001182 Ry

     iteration # 11     ecut=    80.00 Ry     beta= 0.30
     Davidson diagonalization with overlap
     ethr =  2.69E-08,  avg # of iterations =  5.6

     total cpu time spent up to now is      383.1 secs

     total energy              =   -1464.86651673 Ry
     estimated scf accuracy    <       0.00005084 Ry

     iteration # 12     ecut=    80.00 Ry     beta= 0.30
     Davidson diagonalization with overlap
     ethr =  2.69E-08,  avg # of iterations =  3.3

     total cpu time spent up to now is      393.4 secs

     total energy              =   -1464.86651689 Ry
     estimated scf accuracy    <       0.00000976 Ry

     iteration # 13     ecut=    80.00 Ry     beta= 0.30
     Davidson diagonalization with overlap
     ethr =  2.22E-08,  avg # of iterations =  3.2

     total cpu time spent up to now is      403.2 secs

     total energy              =   -1464.86651886 Ry
     estimated scf accuracy    <       0.00000071 Ry

     iteration # 14     ecut=    80.00 Ry     beta= 0.30
     Davidson diagonalization with overlap
     ethr =  1.62E-09,  avg # of iterations =  4.3

     total cpu time spent up to now is      414.2 secs

     total energy              =   -1464.86651910 Ry
     estimated scf accuracy    <       0.00000158 Ry

     iteration # 15     ecut=    80.00 Ry     beta= 0.30
     Davidson diagonalization with overlap
     ethr =  1.62E-09,  avg # of iterations =  1.0

     total cpu time spent up to now is      422.3 secs

     total energy              =   -1464.86651881 Ry
     estimated scf accuracy    <       0.00000169 Ry

     iteration # 16     ecut=    80.00 Ry     beta= 0.30
     Davidson diagonalization with overlap
     ethr =  1.62E-09,  avg # of iterations =  2.0

     total cpu time spent up to now is      431.4 secs

     total energy              =   -1464.86651865 Ry
     estimated scf accuracy    <       0.00000092 Ry

     iteration # 17     ecut=    80.00 Ry     beta= 0.30
     Davidson diagonalization with overlap
     ethr =  1.62E-09,  avg # of iterations =  2.3

     total cpu time spent up to now is      441.0 secs

     total energy              =   -1464.86651887 Ry
     estimated scf accuracy    <       0.00000041 Ry

     iteration # 18     ecut=    80.00 Ry     beta= 0.30
     Davidson diagonalization with overlap
     ethr =  9.36E-10,  avg # of iterations =  2.0

     total cpu time spent up to now is      450.4 secs

     total energy              =   -1464.86651857 Ry
     estimated scf accuracy    <       0.00000080 Ry

     iteration # 19     ecut=    80.00 Ry     beta= 0.30
     Davidson diagonalization with overlap
     ethr =  9.36E-10,  avg # of iterations =  2.0

     total cpu time spent up to now is      460.7 secs

     total energy              =   -1464.86651858 Ry
     estimated scf accuracy    <       0.00000013 Ry

     iteration # 20     ecut=    80.00 Ry     beta= 0.30
     Davidson diagonalization with overlap
     ethr =  3.00E-10,  avg # of iterations =  4.4

     total cpu time spent up to now is      472.3 secs

     total energy              =   -1464.86651864 Ry
     estimated scf accuracy    <       0.00000001 Ry

     iteration # 21     ecut=    80.00 Ry     beta= 0.30
     Davidson diagonalization with overlap
     ethr =  3.19E-11,  avg # of iterations =  2.7

     total cpu time spent up to now is      482.2 secs

     End of self-consistent calculation

          k = 0.0000 0.0000 0.0000 (  9093 PWs)   bands (ev):

   -17.0110 -16.8418 -16.8418 -15.6091 -10.5429 -10.5429 -10.5429 -10.2980
   -10.2980  -2.4809  -2.4809  -2.4809  -0.4712   0.3352   0.3352   0.3352
     1.8884   1.8884   1.8884   2.0015   2.0015   2.0015

          k = 0.0000 0.0000 0.1246 (  9186 PWs)   bands (ev):

   -16.9998 -16.8416 -16.8381 -15.6118 -10.5440 -10.5440 -10.5428 -10.3317
   -10.2980  -2.5065  -2.4682  -2.4682  -0.8748   0.3350   0.3350   0.8524
     1.8750   1.8811   1.8811   1.9906   1.9906   2.0439

          k = 0.0000 0.0000 0.2491 (  9158 PWs)   bands (ev):

   -16.9725 -16.8413 -16.8292 -15.6185 -10.5469 -10.5469 -10.5427 -10.4132
   -10.2979  -2.5724  -2.4369  -2.4369  -1.3268   0.3330   0.3330   1.3760
     1.8431   1.8655   1.8655   1.9636   1.9636   2.3984

          k = 0.0000 0.0000 0.3737 (  9138 PWs)   bands (ev):

   -16.9447 -16.8409 -16.8202 -15.6252 -10.5497 -10.5497 -10.5427 -10.4948
   -10.2979  -2.6438  -2.4048  -2.4048  -1.5896   0.3286   0.3286   1.4721
     1.8117   1.8549   1.8549   1.9336   1.9336   3.0871

          k = 0.0000 0.0000-0.4982 (  9122 PWs)   bands (ev):

   -16.9331 -16.8408 -16.8165 -15.6280 -10.5509 -10.5509 -10.5426 -10.5287
   -10.2979  -2.6748  -2.3912  -2.3912  -1.6724   0.3260   0.3260   1.4723
     1.7989   1.8532   1.8532   1.9190   1.9190   3.4283

          k = 0.0000 0.1246 0.1246 (  9179 PWs)   bands (ev):

   -16.9887 -16.8397 -16.8362 -15.6144 -10.5452 -10.5440 -10.5440 -10.3481
   -10.3149  -2.4977  -2.4953  -2.4562  -1.1561   0.3372   0.5178   1.0424
     1.8389   1.8735   1.9011   1.9788   2.0142   2.0865

          k = 0.0000 0.1246 0.2491 (  9173 PWs)   bands (ev):

   -16.9620 -16.8386 -16.8278 -15.6205 -10.5479 -10.5468 -10.5439 -10.4226
   -10.3213  -2.5697  -2.4703  -2.4267  -1.5509   0.3412   0.6070   1.3792
     1.7996   1.8571   1.9011   1.9494   2.0036   2.4943

          k = 0.0000 0.1246 0.3737 (  9170 PWs)   bands (ev):

   -16.9351 -16.8379 -16.8185 -15.6265 -10.5507 -10.5496 -10.5438 -10.5027
   -10.3222  -2.6497  -2.4394  -2.3965  -1.8016   0.3432   0.6290   1.4621
     1.7837   1.8459   1.8831   1.9164   1.9811   3.1789

          k = 0.0000 0.1246-0.4982 (  9176 PWs)   bands (ev):

   -16.9239 -16.8377 -16.8145 -15.6290 -10.5518 -10.5508 -10.5438 -10.5362
   -10.3224  -2.6845  -2.4243  -2.3838  -1.8848   0.3433   0.6344   1.4664
     1.7855   1.8446   1.8694   1.9000   1.9709   3.5150

          k = 0.0000 0.2491 0.2491 (  9182 PWs)   bands (ev):

   -16.9371 -16.8330 -16.8226 -15.6251 -10.5505 -10.5468 -10.5466 -10.4662
   -10.3571  -2.5749  -2.5410  -2.4019  -1.9069   0.3605   0.9909   1.4070
     1.7562   1.8380   1.9142   1.9281   2.0544   2.8877

          k = 0.0000 0.2491 0.3737 (  9177 PWs)   bands (ev):

   -16.9136 -16.8288 -16.8141 -15.6298 -10.5531 -10.5495 -10.5465 -10.5325
   -10.3704  -2.6641  -2.5235  -2.3765  -2.1544   0.3789   1.1612   1.4398
     1.7656   1.8238   1.8748   1.9234   2.0624   3.4895

          k = 0.0000 0.2491-0.4982 (  9158 PWs)   bands (ev):

   -16.9044 -16.8271 -16.8097 -15.6317 -10.5629 -10.5541 -10.5506 -10.5465
   -10.3732  -2.7072  -2.5019  -2.3658  -2.2468   0.3862   1.2038   1.4405
     1.7996   1.8227   1.8540   1.9034   2.0595   3.7980

          k = 0.0000 0.3737 0.3737 (  9198 PWs)   bands (ev):

   -16.8958 -16.8163 -16.8087 -15.6330 -10.5805 -10.5554 -10.5493 -10.5492
   -10.4009  -2.6955  -2.5869  -2.4056  -2.3561   0.4154   1.4169   1.5300
     1.7872   1.8031   1.8309   1.9367   2.1161   3.9677

          k = 0.0000 0.3737-0.4982 (  9186 PWs)   bands (ev):

   -16.8898 -16.8112 -16.8049 -15.6344 -10.6049 -10.5564 -10.5504 -10.5492
   -10.4091  -2.7265  -2.5765  -2.5105  -2.3475   0.4308   1.4078   1.6380
     1.7991   1.8079   1.8350   1.9160   2.1313   4.2303

          k = 0.0000-0.4982-0.4982 (  9220 PWs)   bands (ev):

   -16.8853 -16.8029 -16.8029 -15.6355 -10.6267 -10.5573 -10.5503 -10.5503
   -10.4196  -2.7305  -2.6065  -2.6065  -2.3399   0.4499   1.3936   1.7888
     1.7888   1.8516   1.8520   1.8520   2.1587   4.4723

          k = 0.1246 0.1246 0.1246 (  9195 PWs)   bands (ev):

   -16.9778 -16.8361 -16.8361 -15.6166 -10.5452 -10.5452 -10.5451 -10.3481
   -10.3481  -2.4882  -2.4882  -2.4858  -1.3856   0.5192   0.5192   1.1635
     1.8345   1.8345   1.9279   2.0041   2.0041   2.1554

          k = 0.1246 0.1246 0.2491 (  9185 PWs)   bands (ev):

   -16.9514 -16.8357 -16.8269 -15.6221 -10.5480 -10.5478 -10.5451 -10.4284
   -10.3481  -2.5691  -2.4652  -2.4621  -1.7408   0.5215   0.6778   1.3818
     1.7920   1.8227   1.9354   1.9865   1.9972   2.5937

          k = 0.1246 0.1246 0.3737 (  9165 PWs)   bands (ev):

   -16.9250 -16.8353 -16.8171 -15.6275 -10.5509 -10.5504 -10.5450 -10.5088
   -10.3480  -2.6597  -2.4417  -2.4274  -1.9801   0.5219   0.7368   1.4585
     1.7707   1.8217   1.9095   1.9578   1.9830   3.2686

          k = 0.1246 0.1246-0.4982 (  9172 PWs)   bands (ev):

   -16.9142 -16.8351 -16.8128 -15.6297 -10.5521 -10.5515 -10.5449 -10.5422
   -10.3480  -2.6994  -2.4318  -2.4068  -2.0648   0.5215   0.7542   1.4692
     1.7668   1.8321   1.8928   1.9303   1.9831   3.5997

          k = 0.1246 0.2491 0.2491 (  9176 PWs)   bands (ev):

   -16.9262 -16.8300 -16.8224 -15.6259 -10.5505 -10.5478 -10.5478 -10.4662
   -10.3889  -2.5875  -2.5389  -2.4469  -2.0542   0.5926   0.9968   1.4090
     1.7603   1.8038   1.9600   1.9687   2.0469   2.9831

          k = 0.1246 0.2491 0.3737 (  9175 PWs)   bands (ev):

   -16.9025 -16.8270 -16.8133 -15.6298 -10.5532 -10.5505 -10.5477 -10.5342
   -10.4000  -2.6936  -2.5272  -2.4268  -2.2742   0.6149   1.1832   1.4544
     1.7545   1.8000   1.9275   1.9634   2.0592   3.5726

          k = 0.1246 0.2491-0.4982 (  9176 PWs)   bands (ev):

   -16.8933 -16.8259 -16.8086 -15.6314 -10.5652 -10.5543 -10.5517 -10.5477
   -10.4018  -2.7447  -2.5053  -2.4041  -2.3732   0.6225   1.2354   1.4658
     1.7636   1.8121   1.9216   1.9332   2.0602   3.8768

          k = 0.1246 0.3737 0.3737 (  9211 PWs)   bands (ev):

   -16.8839 -16.8153 -16.8084 -15.6322 -10.5804 -10.5556 -10.5505 -10.5505
   -10.4315  -2.7712  -2.5915  -2.4889  -2.3933   0.6582   1.4542   1.5398
     1.7565   1.7888   1.9082   1.9721   2.1155   4.0427

          k = 0.1246 0.3737-0.4982 (  9202 PWs)   bands (ev):

   -16.8778 -16.8108 -16.8043 -15.6331 -10.6050 -10.5566 -10.5516 -10.5505
   -10.4392  -2.8215  -2.5825  -2.5644  -2.3943   0.6748   1.4560   1.6465
     1.7679   1.7970   1.9134   1.9501   2.1320   4.3029

          k = 0.1246-0.4982-0.4982 (  9216 PWs)   bands (ev):

   -16.8732 -16.8026 -16.8026 -15.6338 -10.6267 -10.5576 -10.5516 -10.5516
   -10.4496  -2.8678  -2.6137  -2.6137  -2.3901   0.6954   1.4518   1.7652
     1.7652   1.8519   1.9157   1.9157   2.1597   4.5436

          k = 0.2491 0.2491 0.2491 (  9228 PWs)   bands (ev):

   -16.9006 -16.8219 -16.8219 -15.6279 -10.5508 -10.5508 -10.5501 -10.4661
   -10.4661  -2.6655  -2.5339  -2.5339  -2.2824   1.0104   1.0104   1.4355
     1.7656   1.7656   2.0248   2.0272   2.0272   3.3254

          k = 0.2491 0.2491 0.3737 (  9208 PWs)   bands (ev):

   -16.8769 -16.8213 -16.8113 -15.6299 -10.5538 -10.5528 -10.5506 -10.5437
   -10.4661  -2.8203  -2.5530  -2.5290  -2.4227   1.0232   1.2911   1.4940
     1.7496   1.7738   2.0030   2.0284   2.0640   3.8517

          k = 0.2491 0.2491-0.4982 (  9182 PWs)   bands (ev):

   -16.8680 -16.8211 -16.8058 -15.6308 -10.5760 -10.5550 -10.5539 -10.5506
   -10.4661  -2.8881  -2.5441  -2.5269  -2.4794   1.0282   1.3803   1.5196
     1.7472   1.7961   1.9917   2.0014   2.0775   4.1349

          k = 0.2491 0.3737 0.3737 (  9189 PWs)   bands (ev):

   -16.8554 -16.8125 -16.8078 -15.6301 -10.5804 -10.5561 -10.5536 -10.5533
   -10.5056  -2.9947  -2.6026  -2.5690  -2.4890   1.1636   1.5419   1.5640
     1.7485   1.7690   2.0214   2.0432   2.1146   4.2891

          k = 0.2491 0.3737-0.4982 (  9192 PWs)   bands (ev):

   -16.8487 -16.8098 -16.8031 -15.6301 -10.6058 -10.5572 -10.5546 -10.5536
   -10.5118  -3.0661  -2.6131  -2.5973  -2.5016   1.1886   1.5664   1.6725
     1.7512   1.7911   2.0233   2.0299   2.1341   4.5385

          k = 0.2491-0.4982-0.4982 (  9184 PWs)   bands (ev):

   -16.8437 -16.8019 -16.8019 -15.6298 -10.6266 -10.5582 -10.5548 -10.5548
   -10.5225  -3.1377  -2.6310  -2.6310  -2.5050   1.2232   1.5852   1.7536
     1.7536   1.8528   2.0261   2.0261   2.1622   4.7733

          k = 0.3737 0.3737 0.3737 (  9207 PWs)   bands (ev):

   -16.8288 -16.8072 -16.8072 -15.6280 -10.5803 -10.5803 -10.5567 -10.5567
   -10.5560  -3.1996  -2.6137  -2.6137  -2.5727   1.5893   1.5893   1.6298
     1.7570   1.7570   2.0966   2.0966   2.1239   4.6807

          k = 0.3737 0.3737-0.4982 (  9228 PWs)   bands (ev):

   -16.8208 -16.8069 -16.8018 -15.6271 -10.6114 -10.5803 -10.5580 -10.5574
   -10.5566  -3.2758  -2.6389  -2.6182  -2.5961   1.6002   1.6694   1.7243
     1.7531   1.7902   2.1025   2.1094   2.1431   4.9142

          k = 0.3737-0.4982-0.4982 (  9220 PWs)   bands (ev):

   -16.8136 -16.8012 -16.8012 -15.6258 -10.6266 -10.5959 -10.5589 -10.5579
   -10.5579  -3.3528  -2.6480  -2.6480  -2.6124   1.6823   1.7099   1.7564
     1.7564   1.8537   2.1253   2.1253   2.1647   5.1436

          k =-0.4982-0.4982-0.4982 (  9328 PWs)   bands (ev):

   -16.8009 -16.8009 -16.8009 -15.6242 -10.6265 -10.6265 -10.5592 -10.5592
   -10.5592  -3.4308  -2.6550  -2.6550  -2.6550   1.7594   1.7594   1.7594
     1.8540   1.8540   2.1657   2.1657   2.1657   5.3772

     highest occupied level (ev):     5.3772

!    total energy              =   -1464.86651864 Ry
     total all-electron energy =    -57937.801699 Ry
     estimated scf accuracy    <          8.1E-10 Ry

     The total energy is the sum of the following terms:
     one-electron contribution =    -146.07878205 Ry
     hartree contribution      =     103.30732342 Ry
     xc contribution           =     -82.66336727 Ry
     ewald contribution        =    -202.29130187 Ry
     one-center paw contrib.   =   -1137.14039086 Ry

     convergence has been achieved in  21 iterations

     Forces acting on atoms (cartesian axes, Ry/au):

     atom    1 type  2   force =     0.00000000    0.00000000    0.00000000
     atom    2 type  1   force =     0.00000000    0.00000000    0.00000000
     atom    3 type  3   force =     0.00000000    0.00000000    0.00000000
     atom    4 type  3   force =     0.00000000    0.00000000    0.00000000
     atom    5 type  3   force =     0.00000000    0.00000000    0.00000000
     The non-local contrib.  to forces
     atom    1 type  2   force =     0.00000000    0.00000000    0.00000000
     atom    2 type  1   force =     0.00000000    0.00000000    0.00000000
     atom    3 type  3   force =     0.00000000    0.00000000    0.00000000
     atom    4 type  3   force =     0.00000000    0.00000000    0.00000000
     atom    5 type  3   force =     0.00000000    0.00000000    0.00000000
     The ionic contribution  to forces
     atom    1 type  2   force =    -0.00000000   -0.00000000   -0.00000000
     atom    2 type  1   force =     0.00000000    0.00000000    0.00000000
     atom    3 type  3   force =    -0.00000000   -0.00000000   -0.00000000
     atom    4 type  3   force =    -0.00000000   -0.00000000   -0.00000000
     atom    5 type  3   force =    -0.00000000   -0.00000000   -0.00000000
     The local contribution  to forces
     atom    1 type  2   force =    -0.00000000   -0.00000000    0.00000000
     atom    2 type  1   force =     0.00000000    0.00000000    0.00000000
     atom    3 type  3   force =     0.00000000    0.00000000    0.00000000
     atom    4 type  3   force =     0.00000000    0.00000000    0.00000000
     atom    5 type  3   force =     0.00000000    0.00000000    0.00000000
     The core correction contribution to forces
     atom    1 type  2   force =     0.00000000    0.00000000   -0.00000000
     atom    2 type  1   force =     0.00000000    0.00000000    0.00000000
     atom    3 type  3   force =     0.00000000   -0.00000000    0.00000000
     atom    4 type  3   force =    -0.00000000    0.00000000    0.00000000
     atom    5 type  3   force =     0.00000000    0.00000000   -0.00000000
     The Hubbard contrib.    to forces
     atom    1 type  2   force =     0.00000000    0.00000000    0.00000000
     atom    2 type  1   force =     0.00000000    0.00000000    0.00000000
     atom    3 type  3   force =     0.00000000    0.00000000    0.00000000
     atom    4 type  3   force =     0.00000000    0.00000000    0.00000000
     atom    5 type  3   force =     0.00000000    0.00000000    0.00000000
     The SCF correction term to forces
     atom    1 type  2   force =     0.00000000    0.00000000    0.00000000
     atom    2 type  1   force =    -0.00000000    0.00000000    0.00000000
     atom    3 type  3   force =     0.00000000    0.00000000    0.00000000
     atom    4 type  3   force =    -0.00000000   -0.00000000    0.00000000
     atom    5 type  3   force =    -0.00000000    0.00000000    0.00000000

     Total force =     0.000000     Total SCF correction =     0.000000


     Computing stress (Cartesian axis) and pressure

          total   stress  (Ry/bohr**3)                   (kbar)     P=       16.06
   0.00010917   0.00000000   0.00000000           16.06        0.00        0.00
   0.00000000   0.00010917   0.00000000            0.00       16.06        0.00
   0.00000000   0.00000000   0.00010917            0.00        0.00       16.06

     Energy error            =      1.0E-03 Ry
     Gradient error          =      0.0E+00 Ry/Bohr
     Cell gradient error     =      1.6E+01 kbar

     number of scf cycles    =   2
     number of bfgs steps    =   1

     enthalpy           old  =   -1464.8654747218 Ry
     enthalpy           new  =   -1464.8665186399 Ry

     CASE: enthalpy          _new < enthalpy          _old

     new trust radius        =       0.0218947146 bohr
     new conv_thr            =            1.0E-10 Ry

     new unit-cell volume =    777.68655 a.u.^3 (   115.24126 Ang^3 )
     density =      5.72197 g/cm^3

CELL_PARAMETERS (alat=  9.12700000)
   1.007565940   0.000000000   0.000000000
   0.000000000   1.007565940   0.000000000
   0.000000000   0.000000000   1.007565940

ATOMIC_POSITIONS (crystal)
Pb            0.0000000000        0.0000000000        0.0000000000
Cs            0.5000000000        0.5000000000        0.5000000000
F             0.0000000000        0.5000000000        0.0000000000
F             0.5000000000        0.0000000000        0.0000000000
F             0.0000000000        0.0000000000        0.5000000000



     Writing config-only to output data dir ../../tmp/cspbf3.save/
     NEW-OLD atomic charge density approx. for the potential
     extrapolated charge   44.51667, renormalised to   44.00000

     total cpu time spent up to now is      523.7 secs

     Self-consistent Calculation

     iteration #  1     ecut=    80.00 Ry     beta= 0.30
     Davidson diagonalization with overlap
     ethr =  1.00E-06,  avg # of iterations =  8.0

     total cpu time spent up to now is      541.6 secs

     total energy              =   -1464.82947495 Ry
     estimated scf accuracy    <       0.04000922 Ry

     iteration #  2     ecut=    80.00 Ry     beta= 0.30
     Davidson diagonalization with overlap
     ethr =  9.09E-05,  avg # of iterations =  3.1

     total cpu time spent up to now is      553.2 secs

     total energy              =   -1464.86959333 Ry
     estimated scf accuracy    <       0.03114032 Ry

     iteration #  3     ecut=    80.00 Ry     beta= 0.30
     Davidson diagonalization with overlap
     ethr =  7.08E-05,  avg # of iterations =  1.1

     total cpu time spent up to now is      561.4 secs

     total energy              =   -1464.86499557 Ry
     estimated scf accuracy    <       0.01576932 Ry

     iteration #  4     ecut=    80.00 Ry     beta= 0.30
     Davidson diagonalization with overlap
     ethr =  3.58E-05,  avg # of iterations =  3.2

     total cpu time spent up to now is      571.1 secs

     total energy              =   -1464.86715053 Ry
     estimated scf accuracy    <       0.00217137 Ry

     iteration #  5     ecut=    80.00 Ry     beta= 0.30
     Davidson diagonalization with overlap
     ethr =  4.93E-06,  avg # of iterations =  4.5

     total cpu time spent up to now is      581.3 secs

     total energy              =   -1464.86745913 Ry
     estimated scf accuracy    <       0.00110900 Ry

     iteration #  6     ecut=    80.00 Ry     beta= 0.30
     Davidson diagonalization with overlap
     ethr =  2.52E-06,  avg # of iterations =  1.7

     total cpu time spent up to now is      589.8 secs

     total energy              =   -1464.86738527 Ry
     estimated scf accuracy    <       0.00078407 Ry

     iteration #  7     ecut=    80.00 Ry     beta= 0.30
     Davidson diagonalization with overlap
     ethr =  1.78E-06,  avg # of iterations =  1.7

     total cpu time spent up to now is      598.3 secs

     total energy              =   -1464.86726088 Ry
     estimated scf accuracy    <       0.00041495 Ry

     iteration #  8     ecut=    80.00 Ry     beta= 0.30
     Davidson diagonalization with overlap
     ethr =  9.43E-07,  avg # of iterations =  3.3

     total cpu time spent up to now is      608.2 secs

     total energy              =   -1464.86732886 Ry
     estimated scf accuracy    <       0.00003199 Ry

     iteration #  9     ecut=    80.00 Ry     beta= 0.30
     Davidson diagonalization with overlap
     ethr =  7.27E-08,  avg # of iterations =  5.0

     total cpu time spent up to now is      620.4 secs

     total energy              =   -1464.86734530 Ry
     estimated scf accuracy    <       0.00000536 Ry

     iteration # 10     ecut=    80.00 Ry     beta= 0.30
     Davidson diagonalization with overlap
     ethr =  1.22E-08,  avg # of iterations =  4.3

     total cpu time spent up to now is      631.3 secs

     total energy              =   -1464.86734514 Ry
     estimated scf accuracy    <       0.00000424 Ry

     iteration # 11     ecut=    80.00 Ry     beta= 0.30
     Davidson diagonalization with overlap
     ethr =  9.64E-09,  avg # of iterations =  2.7

     total cpu time spent up to now is      641.6 secs

     total energy              =   -1464.86734634 Ry
     estimated scf accuracy    <       0.00000071 Ry

     iteration # 12     ecut=    80.00 Ry     beta= 0.30
     Davidson diagonalization with overlap
     ethr =  1.61E-09,  avg # of iterations =  4.2

     total cpu time spent up to now is      652.3 secs

     total energy              =   -1464.86734652 Ry
     estimated scf accuracy    <       0.00000015 Ry

     iteration # 13     ecut=    80.00 Ry     beta= 0.30
     Davidson diagonalization with overlap
     ethr =  3.40E-10,  avg # of iterations =  4.2

     total cpu time spent up to now is      663.3 secs

     total energy              =   -1464.86734654 Ry
     estimated scf accuracy    <       0.00000009 Ry

     iteration # 14     ecut=    80.00 Ry     beta= 0.30
     Davidson diagonalization with overlap
     ethr =  1.99E-10,  avg # of iterations =  3.1

     total cpu time spent up to now is      673.6 secs

     total energy              =   -1464.86734656 Ry
     estimated scf accuracy    <       0.00000017 Ry

     iteration # 15     ecut=    80.00 Ry     beta= 0.30
     Davidson diagonalization with overlap
     ethr =  1.99E-10,  avg # of iterations =  4.2

     total cpu time spent up to now is      685.7 secs

     total energy              =   -1464.86734662 Ry
     estimated scf accuracy    <       0.00000005 Ry

     iteration # 16     ecut=    80.00 Ry     beta= 0.30
     Davidson diagonalization with overlap
     ethr =  1.05E-10,  avg # of iterations =  1.8

     total cpu time spent up to now is      694.3 secs

     total energy              =   -1464.86734665 Ry
     estimated scf accuracy    <       0.00000007 Ry

     iteration # 17     ecut=    80.00 Ry     beta= 0.30
     Davidson diagonalization with overlap
     ethr =  1.05E-10,  avg # of iterations =  4.6

     total cpu time spent up to now is      704.9 secs

     total energy              =   -1464.86734659 Ry
     estimated scf accuracy    <       0.00000022 Ry

     iteration # 18     ecut=    80.00 Ry     beta= 0.30
     Davidson diagonalization with overlap
     ethr =  1.05E-10,  avg # of iterations =  3.2

     total cpu time spent up to now is      715.3 secs

     total energy              =   -1464.86734660 Ry
     estimated scf accuracy    <       0.00000002 Ry

     iteration # 19     ecut=    80.00 Ry     beta= 0.30
     Davidson diagonalization with overlap
     ethr =  4.96E-11,  avg # of iterations =  3.8

     total cpu time spent up to now is      725.4 secs

     total energy              =   -1464.86734660 Ry
     estimated scf accuracy    <          1.7E-09 Ry

     iteration # 20     ecut=    80.00 Ry     beta= 0.30
     Davidson diagonalization with overlap
     ethr =  3.93E-12,  avg # of iterations =  4.7

     total cpu time spent up to now is      736.6 secs

     total energy              =   -1464.86734660 Ry
     estimated scf accuracy    <          9.3E-10 Ry

     iteration # 21     ecut=    80.00 Ry     beta= 0.30
     Davidson diagonalization with overlap
     ethr =  2.10E-12,  avg # of iterations =  2.0

     total cpu time spent up to now is      746.2 secs

     total energy              =   -1464.86734660 Ry
     estimated scf accuracy    <          2.3E-09 Ry

     iteration # 22     ecut=    80.00 Ry     beta= 0.30
     Davidson diagonalization with overlap
     ethr =  2.10E-12,  avg # of iterations =  2.0

     total cpu time spent up to now is      756.1 secs

     total energy              =   -1464.86734660 Ry
     estimated scf accuracy    <          6.1E-10 Ry

     iteration # 23     ecut=    80.00 Ry     beta= 0.30
     Davidson diagonalization with overlap
     ethr =  1.38E-12,  avg # of iterations =  5.9

     total cpu time spent up to now is      769.5 secs

     total energy              =   -1464.86734662 Ry
     estimated scf accuracy    <          5.2E-09 Ry

     iteration # 24     ecut=    80.00 Ry     beta= 0.30
     Davidson diagonalization with overlap
     ethr =  1.38E-12,  avg # of iterations =  6.9

     total cpu time spent up to now is      785.8 secs

     total energy              =   -1464.86734662 Ry
     estimated scf accuracy    <       0.00000006 Ry

     iteration # 25     ecut=    80.00 Ry     beta= 0.30
     Davidson diagonalization with overlap
     ethr =  1.38E-12,  avg # of iterations =  1.3

     total cpu time spent up to now is      794.1 secs

     total energy              =   -1464.86734661 Ry
     estimated scf accuracy    <       0.00000005 Ry

     iteration # 26     ecut=    80.00 Ry     beta= 0.30
     Davidson diagonalization with overlap
     ethr =  1.38E-12,  avg # of iterations =  5.9

     total cpu time spent up to now is      808.0 secs

     total energy              =   -1464.86734660 Ry
     estimated scf accuracy    <       0.00000001 Ry

     iteration # 27     ecut=    80.00 Ry     beta= 0.30
     Davidson diagonalization with overlap
     ethr =  1.38E-12,  avg # of iterations =  6.0

     total cpu time spent up to now is      821.9 secs

     total energy              =   -1464.86734660 Ry
     estimated scf accuracy    <          3.3E-10 Ry

     iteration # 28     ecut=    80.00 Ry     beta= 0.30
     Davidson diagonalization with overlap
     ethr =  7.45E-13,  avg # of iterations =  5.5

     total cpu time spent up to now is      835.2 secs

     total energy              =   -1464.86734660 Ry
     estimated scf accuracy    <          1.6E-09 Ry

     iteration # 29     ecut=    80.00 Ry     beta= 0.30
     Davidson diagonalization with overlap
     ethr =  7.45E-13,  avg # of iterations =  4.2

     total cpu time spent up to now is      846.8 secs

     End of self-consistent calculation

          k = 0.0000 0.0000 0.0000 (  9093 PWs)   bands (ev):

   -17.0833 -16.9198 -16.9198 -15.7379 -10.6961 -10.6961 -10.6961 -10.4593
   -10.4593  -2.6018  -2.6018  -2.6018  -0.6378   0.2624   0.2624   0.2624
     1.8040   1.8040   1.8040   1.9103   1.9103   1.9103

          k = 0.0000 0.0000 0.1241 (  9186 PWs)   bands (ev):

   -17.0725 -16.9197 -16.9163 -15.7406 -10.6972 -10.6972 -10.6961 -10.4914
   -10.4593  -2.6270  -2.5899  -2.5899  -1.0135   0.2627   0.2627   0.7533
     1.7910   1.7968   1.7968   1.8998   1.8998   1.9485

          k = 0.0000 0.0000 0.2481 (  9158 PWs)   bands (ev):

   -17.0461 -16.9194 -16.9078 -15.7470 -10.6999 -10.6999 -10.6960 -10.5690
   -10.4592  -2.6915  -2.5606  -2.5606  -1.4542   0.2621   0.2621   1.2841
     1.7599   1.7813   1.7813   1.8737   1.8737   2.2771

          k = 0.0000 0.0000 0.3722 (  9138 PWs)   bands (ev):

   -17.0192 -16.9190 -16.8992 -15.7535 -10.7025 -10.7025 -10.6959 -10.6467
   -10.4592  -2.7615  -2.5306  -2.5306  -1.7140   0.2593   0.2593   1.3909
     1.7294   1.7707   1.7707   1.8445   1.8445   2.9425

          k = 0.0000 0.0000-0.4962 (  9122 PWs)   bands (ev):

   -17.0079 -16.9189 -16.8957 -15.7562 -10.7036 -10.7036 -10.6959 -10.6790
   -10.4592  -2.7918  -2.5179  -2.5179  -1.7963   0.2575   0.2575   1.3933
     1.7169   1.7691   1.7691   1.8302   1.8302   3.2759

          k = 0.0000 0.1241 0.1241 (  9179 PWs)   bands (ev):

   -17.0619 -16.9178 -16.9145 -15.7430 -10.6983 -10.6972 -10.6971 -10.5070
   -10.4754  -2.6185  -2.6165  -2.5787  -1.2835   0.2653   0.4416   0.9402
     1.7552   1.7893   1.8163   1.8884   1.9227   1.9854

          k = 0.0000 0.1241 0.2481 (  9173 PWs)   bands (ev):

   -17.0359 -16.9167 -16.9064 -15.7489 -10.7009 -10.6998 -10.6971 -10.5780
   -10.4815  -2.6887  -2.5928  -2.5511  -1.6704   0.2704   0.5288   1.2902
     1.7163   1.7730   1.8159   1.8600   1.9129   2.3674

          k = 0.0000 0.1241 0.3722 (  9170 PWs)   bands (ev):

   -17.0099 -16.9161 -16.8976 -15.7548 -10.7035 -10.7025 -10.6970 -10.6544
   -10.4823  -2.7664  -2.5637  -2.5228  -1.9184   0.2737   0.5509   1.3814
     1.7002   1.7618   1.7976   1.8280   1.8921   3.0317

          k = 0.0000 0.1241-0.4962 (  9176 PWs)   bands (ev):

   -16.9990 -16.9159 -16.8938 -15.7572 -10.7045 -10.7036 -10.6970 -10.6862
   -10.4825  -2.8003  -2.5496  -2.5109  -2.0009   0.2744   0.5566   1.3873
     1.7017   1.7605   1.7839   1.8119   1.8827   3.3605

          k = 0.0000 0.2481 0.2481 (  9182 PWs)   bands (ev):

   -17.0119 -16.9114 -16.9014 -15.7534 -10.7033 -10.6998 -10.6996 -10.6197
   -10.5155  -2.6927  -2.6609  -2.5277  -2.0197   0.2900   0.9060   1.3240
     1.6725   1.7541   1.8261   1.8410   1.9633   2.7465

          k = 0.0000 0.2481 0.3722 (  9177 PWs)   bands (ev):

   -16.9891 -16.9074 -16.8933 -15.7580 -10.7057 -10.7023 -10.6996 -10.6829
   -10.5282  -2.7778  -2.6441  -2.5039  -2.2648   0.3088   1.0731   1.3602
     1.6806   1.7400   1.7881   1.8347   1.9727   3.3350

          k = 0.0000 0.2481-0.4962 (  9158 PWs)   bands (ev):

   -16.9803 -16.9058 -16.8891 -15.7598 -10.7119 -10.7067 -10.7034 -10.6995
   -10.5308  -2.8191  -2.6241  -2.4938  -2.3557   0.3163   1.1148   1.3618
     1.7130   1.7389   1.7678   1.8145   1.9708   3.6374

          k = 0.0000 0.3722 0.3722 (  9198 PWs)   bands (ev):

   -16.9720 -16.8954 -16.8880 -15.7611 -10.7288 -10.7079 -10.7022 -10.7021
   -10.5571  -2.8029  -2.7056  -2.5162  -2.4846   0.3448   1.3382   1.4363
     1.7004   1.7195   1.7459   1.8451   2.0262   3.8039

          k = 0.0000 0.3722-0.4962 (  9186 PWs)   bands (ev):

   -16.9662 -16.8904 -16.8844 -15.7625 -10.7521 -10.7088 -10.7032 -10.7021
   -10.5649  -2.8307  -2.6958  -2.6209  -2.4765   0.3599   1.3294   1.5434
     1.7156   1.7237   1.7463   1.8233   2.0417   4.0617

          k = 0.0000-0.4962-0.4962 (  9220 PWs)   bands (ev):

   -16.9618 -16.8825 -16.8825 -15.7636 -10.7730 -10.7097 -10.7031 -10.7031
   -10.5749  -2.8251  -2.7247  -2.7247  -2.4693   0.3785   1.3155   1.7054
     1.7054   1.7505   1.7624   1.7624   2.0687   4.2994

          k = 0.1241 0.1241 0.1241 (  9195 PWs)   bands (ev):

   -17.0513 -16.9143 -16.9143 -15.7452 -10.6983 -10.6983 -10.6982 -10.5070
   -10.5070  -2.6096  -2.6096  -2.6075  -1.5058   0.4434   0.4434   1.0635
     1.7507   1.7507   1.8427   1.9131   1.9131   2.0467

          k = 0.1241 0.1241 0.2481 (  9185 PWs)   bands (ev):

   -17.0257 -16.9139 -16.9055 -15.7505 -10.7010 -10.7007 -10.6982 -10.5835
   -10.5070  -2.6877  -2.5879  -2.5848  -1.8551   0.4468   0.5980   1.2952
     1.7083   1.7385   1.8495   1.8971   1.9063   2.4616

          k = 0.1241 0.1241 0.3722 (  9165 PWs)   bands (ev):

   -17.0002 -16.9136 -16.8962 -15.7557 -10.7036 -10.7032 -10.6981 -10.6602
   -10.5069  -2.7751  -2.5658  -2.5521  -2.0923   0.4486   0.6555   1.3780
     1.6862   1.7369   1.8237   1.8685   1.8951   3.1190

          k = 0.1241 0.1241-0.4962 (  9172 PWs)   bands (ev):

   -16.9897 -16.9134 -16.8921 -15.7579 -10.7048 -10.7042 -10.6980 -10.6920
   -10.5069  -2.8133  -2.5566  -2.5331  -2.1757   0.4488   0.6725   1.3898
     1.6817   1.7464   1.8077   1.8424   1.8954   3.4432

          k = 0.1241 0.2481 0.2481 (  9176 PWs)   bands (ev):

   -17.0014 -16.9085 -16.9012 -15.7542 -10.7033 -10.7008 -10.7007 -10.6196
   -10.5459  -2.7031  -2.6589  -2.5703  -2.1651   0.5167   0.9121   1.3269
     1.6757   1.7192   1.8711   1.8816   1.9562   2.8386

          k = 0.1241 0.2481 0.3722 (  9175 PWs)   bands (ev):

   -16.9784 -16.9056 -16.8926 -15.7580 -10.7058 -10.7033 -10.7007 -10.6845
   -10.5564  -2.8033  -2.6473  -2.5506  -2.3858   0.5392   1.0946   1.3742
     1.6684   1.7146   1.8404   1.8750   1.9699   3.4161

          k = 0.1241 0.2481-0.4962 (  9176 PWs)   bands (ev):

   -16.9695 -16.9046 -16.8880 -15.7596 -10.7141 -10.7068 -10.7044 -10.7006
   -10.5582  -2.8519  -2.6272  -2.5305  -2.4813   0.5471   1.1456   1.3858
     1.6763   1.7256   1.8348   1.8459   1.9717   3.7146

          k = 0.1241 0.3722 0.3722 (  9211 PWs)   bands (ev):

   -16.9606 -16.8944 -16.8878 -15.7603 -10.7288 -10.7081 -10.7033 -10.7033
   -10.5863  -2.8702  -2.7099  -2.6034  -2.5192   0.5817   1.3739   1.4458
     1.6689   1.7028   1.8221   1.8821   2.0257   3.8774

          k = 0.1241 0.3722-0.4962 (  9202 PWs)   bands (ev):

   -16.9546 -16.8901 -16.8839 -15.7613 -10.7523 -10.7090 -10.7043 -10.7032
   -10.5937  -2.9167  -2.7014  -2.6788  -2.5211   0.5980   1.3755   1.5518
     1.6801   1.7093   1.8267   1.8601   2.0424   4.1330

          k = 0.1241-0.4962-0.4962 (  9216 PWs)   bands (ev):

   -16.9502 -16.8822 -16.8822 -15.7620 -10.7730 -10.7099 -10.7043 -10.7043
   -10.6036  -2.9580  -2.7314  -2.7314  -2.5170   0.6180   1.3710   1.6779
     1.6779   1.7508   1.8284   1.8284   2.0697   4.3694

          k = 0.2481 0.2481 0.2481 (  9228 PWs)   bands (ev):

   -16.9767 -16.9007 -16.9007 -15.7562 -10.7036 -10.7036 -10.7029 -10.6196
   -10.6196  -2.7700  -2.6541  -2.6541  -2.3973   0.9262   0.9262   1.3543
     1.6795   1.6795   1.9370   1.9370   1.9376   3.1726

          k = 0.2481 0.2481 0.3722 (  9208 PWs)   bands (ev):

   -16.9538 -16.9002 -16.8906 -15.7582 -10.7063 -10.7055 -10.7033 -10.6937
   -10.6195  -2.9157  -2.6703  -2.6494  -2.5427   0.9396   1.2007   1.4119
     1.6615   1.6864   1.9149   1.9387   1.9757   3.6895

          k = 0.2481 0.2481-0.4962 (  9182 PWs)   bands (ev):

   -16.9452 -16.9000 -16.8853 -15.7590 -10.7245 -10.7075 -10.7064 -10.7034
   -10.6195  -2.9811  -2.6580  -2.6475  -2.6027   0.9448   1.2875   1.4371
     1.6581   1.7067   1.9044   1.9137   1.9889   3.9678

          k = 0.2481 0.3722 0.3722 (  9189 PWs)   bands (ev):

   -16.9330 -16.8917 -16.8872 -15.7584 -10.7287 -10.7085 -10.7062 -10.7059
   -10.6572  -3.0816  -2.7203  -2.6868  -2.6110   1.0766   1.4578   1.4693
     1.6589   1.6799   1.9334   1.9538   2.0251   4.1195

          k = 0.2481 0.3722-0.4962 (  9192 PWs)   bands (ev):

   -16.9266 -16.8891 -16.8827 -15.7585 -10.7530 -10.7095 -10.7071 -10.7061
   -10.6632  -3.1511  -2.7296  -2.7152  -2.6234   1.1011   1.4812   1.5771
     1.6609   1.6988   1.9356   1.9414   2.0445   4.3646

          k = 0.2481-0.4962-0.4962 (  9184 PWs)   bands (ev):

   -16.9217 -16.8815 -16.8815 -15.7582 -10.7729 -10.7105 -10.7072 -10.7072
   -10.6733  -3.2209  -2.7476  -2.7476  -2.6266   1.1346   1.4987   1.6633
     1.6633   1.7517   1.9384   1.9384   2.0721   4.5952

          k = 0.3722 0.3722 0.3722 (  9207 PWs)   bands (ev):

   -16.9074 -16.8866 -16.8866 -15.7565 -10.7286 -10.7286 -10.7090 -10.7090
   -10.7084  -3.2812  -2.7306  -2.7306  -2.6914   1.4940   1.4940   1.5420
     1.6657   1.6657   2.0071   2.0071   2.0347   4.5047

          k = 0.3722 0.3722-0.4962 (  9228 PWs)   bands (ev):

   -16.8997 -16.8864 -16.8814 -15.7556 -10.7584 -10.7286 -10.7102 -10.7097
   -10.7090  -3.3559  -2.7549  -2.7348  -2.7139   1.5047   1.5799   1.6290
     1.6609   1.6943   2.0133   2.0202   2.0534   4.7338

          k = 0.3722-0.4962-0.4962 (  9220 PWs)   bands (ev):

   -16.8928 -16.8809 -16.8809 -15.7545 -10.7729 -10.7436 -10.7111 -10.7102
   -10.7102  -3.4315  -2.7635  -2.7635  -2.7293   1.5846   1.6185   1.6638
     1.6638   1.7525   2.0360   2.0360   2.0745   4.9586

          k =-0.4962-0.4962-0.4962 (  9328 PWs)   bands (ev):

   -16.8806 -16.8806 -16.8806 -15.7529 -10.7728 -10.7728 -10.7114 -10.7114
   -10.7114  -3.5081  -2.7701  -2.7701  -2.7701   1.6660   1.6660   1.6660
     1.7529   1.7529   2.0755   2.0755   2.0755   5.1866

     highest occupied level (ev):     5.1866

!    total energy              =   -1464.86734660 Ry
     total all-electron energy =    -57937.802527 Ry
     estimated scf accuracy    <          1.0E-12 Ry

     The total energy is the sum of the following terms:
     one-electron contribution =    -147.32550450 Ry
     hartree contribution      =     103.73906464 Ry
     xc contribution           =     -82.64682484 Ry
     ewald contribution        =    -201.49561899 Ry
     one-center paw contrib.   =   -1137.13846291 Ry

     convergence has been achieved in  29 iterations

     Forces acting on atoms (cartesian axes, Ry/au):

     atom    1 type  2   force =     0.00000000    0.00000000    0.00000000
     atom    2 type  1   force =     0.00000000    0.00000000    0.00000000
     atom    3 type  3   force =     0.00000000    0.00000000    0.00000000
     atom    4 type  3   force =     0.00000000    0.00000000    0.00000000
     atom    5 type  3   force =     0.00000000    0.00000000    0.00000000
     The non-local contrib.  to forces
     atom    1 type  2   force =     0.00000000    0.00000000    0.00000000
     atom    2 type  1   force =     0.00000000    0.00000000    0.00000000
     atom    3 type  3   force =     0.00000000    0.00000000    0.00000000
     atom    4 type  3   force =     0.00000000    0.00000000    0.00000000
     atom    5 type  3   force =     0.00000000    0.00000000    0.00000000
     The ionic contribution  to forces
     atom    1 type  2   force =    -0.00000000   -0.00000000   -0.00000000
     atom    2 type  1   force =     0.00000000    0.00000000    0.00000000
     atom    3 type  3   force =    -0.00000000   -0.00000000   -0.00000000
     atom    4 type  3   force =    -0.00000000   -0.00000000   -0.00000000
     atom    5 type  3   force =    -0.00000000   -0.00000000   -0.00000000
     The local contribution  to forces
     atom    1 type  2   force =    -0.00000000   -0.00000000   -0.00000000
     atom    2 type  1   force =     0.00000000    0.00000000    0.00000000
     atom    3 type  3   force =     0.00000000    0.00000000    0.00000000
     atom    4 type  3   force =     0.00000000    0.00000000    0.00000000
     atom    5 type  3   force =     0.00000000    0.00000000    0.00000000
     The core correction contribution to forces
     atom    1 type  2   force =     0.00000000    0.00000000   -0.00000000
     atom    2 type  1   force =     0.00000000    0.00000000   -0.00000000
     atom    3 type  3   force =     0.00000000   -0.00000000   -0.00000000
     atom    4 type  3   force =    -0.00000000    0.00000000    0.00000000
     atom    5 type  3   force =     0.00000000    0.00000000   -0.00000000
     The Hubbard contrib.    to forces
     atom    1 type  2   force =     0.00000000    0.00000000    0.00000000
     atom    2 type  1   force =     0.00000000    0.00000000    0.00000000
     atom    3 type  3   force =     0.00000000    0.00000000    0.00000000
     atom    4 type  3   force =     0.00000000    0.00000000    0.00000000
     atom    5 type  3   force =     0.00000000    0.00000000    0.00000000
     The SCF correction term to forces
     atom    1 type  2   force =     0.00000000   -0.00000000    0.00000000
     atom    2 type  1   force =    -0.00000000   -0.00000000   -0.00000000
     atom    3 type  3   force =    -0.00000000    0.00000000   -0.00000000
     atom    4 type  3   force =    -0.00000000    0.00000000   -0.00000000
     atom    5 type  3   force =     0.00000000    0.00000000   -0.00000000

     Total force =     0.000000     Total SCF correction =     0.000000


     Computing stress (Cartesian axis) and pressure

          total   stress  (Ry/bohr**3)                   (kbar)     P=       10.65
   0.00007239   0.00000000   0.00000000           10.65        0.00        0.00
   0.00000000   0.00007239   0.00000000            0.00       10.65        0.00
   0.00000000   0.00000000   0.00007239            0.00        0.00       10.65

     Energy error            =      8.3E-04 Ry
     Gradient error          =      0.0E+00 Ry/Bohr
     Cell gradient error     =      1.1E+01 kbar

     number of scf cycles    =   3
     number of bfgs steps    =   2

     enthalpy           old  =   -1464.8665186399 Ry
     enthalpy           new  =   -1464.8673466042 Ry

     CASE: enthalpy          _new < enthalpy          _old

     new trust radius        =       0.0329068527 bohr
     new conv_thr            =            1.0E-10 Ry

     new unit-cell volume =    791.53304 a.u.^3 (   117.29309 Ang^3 )
     density =      5.62187 g/cm^3

CELL_PARAMETERS (alat=  9.12700000)
   1.013510607   0.000000000   0.000000000
   0.000000000   1.013510607   0.000000000
   0.000000000   0.000000000   1.013510607

ATOMIC_POSITIONS (crystal)
Pb            0.0000000000        0.0000000000        0.0000000000
Cs            0.5000000000        0.5000000000        0.5000000000
F             0.0000000000        0.5000000000        0.0000000000
F             0.5000000000        0.0000000000        0.0000000000
F             0.0000000000        0.0000000000        0.5000000000



     Writing config-only to output data dir ../../tmp/cspbf3.save/
     NEW-OLD atomic charge density approx. for the potential
     extrapolated charge   44.76897, renormalised to   44.00000

     total cpu time spent up to now is      888.3 secs

     Self-consistent Calculation

     iteration #  1     ecut=    80.00 Ry     beta= 0.30
     Davidson diagonalization with overlap
     ethr =  1.00E-06,  avg # of iterations =  8.5

     total cpu time spent up to now is      908.6 secs

     total energy              =   -1464.77905635 Ry
     estimated scf accuracy    <       0.09468385 Ry

     iteration #  2     ecut=    80.00 Ry     beta= 0.30
     Davidson diagonalization with overlap
     ethr =  2.15E-04,  avg # of iterations =  3.0

     total cpu time spent up to now is      920.2 secs

     total energy              =   -1464.87354163 Ry
     estimated scf accuracy    <       0.07595422 Ry

     iteration #  3     ecut=    80.00 Ry     beta= 0.30
     Davidson diagonalization with overlap
     ethr =  1.73E-04,  avg # of iterations =  1.0

     total cpu time spent up to now is      928.4 secs

     total energy              =   -1464.86170679 Ry
     estimated scf accuracy    <       0.03910525 Ry

     iteration #  4     ecut=    80.00 Ry     beta= 0.30
     Davidson diagonalization with overlap
     ethr =  8.89E-05,  avg # of iterations =  3.1

     total cpu time spent up to now is      938.1 secs

     total energy              =   -1464.86763466 Ry
     estimated scf accuracy    <       0.00480833 Ry

     iteration #  5     ecut=    80.00 Ry     beta= 0.30
     Davidson diagonalization with overlap
     ethr =  1.09E-05,  avg # of iterations =  4.4

     total cpu time spent up to now is      948.3 secs

     total energy              =   -1464.86868352 Ry
     estimated scf accuracy    <       0.00283599 Ry

     iteration #  6     ecut=    80.00 Ry     beta= 0.30
     Davidson diagonalization with overlap
     ethr =  6.45E-06,  avg # of iterations =  1.3

     total cpu time spent up to now is      956.7 secs

     total energy              =   -1464.86862982 Ry
     estimated scf accuracy    <       0.00305290 Ry

     iteration #  7     ecut=    80.00 Ry     beta= 0.30
     Davidson diagonalization with overlap
     ethr =  6.45E-06,  avg # of iterations =  1.1

     total cpu time spent up to now is      964.9 secs

     total energy              =   -1464.86854095 Ry
     estimated scf accuracy    <       0.00274075 Ry

     iteration #  8     ecut=    80.00 Ry     beta= 0.30
     Davidson diagonalization with overlap
     ethr =  6.23E-06,  avg # of iterations =  1.0

     total cpu time spent up to now is      973.1 secs

     total energy              =   -1464.86793495 Ry
     estimated scf accuracy    <       0.00240266 Ry

     iteration #  9     ecut=    80.00 Ry     beta= 0.30
     Davidson diagonalization with overlap
     ethr =  5.46E-06,  avg # of iterations =  2.0

     total cpu time spent up to now is      982.3 secs

     total energy              =   -1464.86796698 Ry
     estimated scf accuracy    <       0.00059822 Ry

     iteration # 10     ecut=    80.00 Ry     beta= 0.30
     Davidson diagonalization with overlap
     ethr =  1.36E-06,  avg # of iterations =  2.4

     total cpu time spent up to now is      991.1 secs

     total energy              =   -1464.86781177 Ry
     estimated scf accuracy    <       0.00030917 Ry

     iteration # 11     ecut=    80.00 Ry     beta= 0.30
     Davidson diagonalization with overlap
     ethr =  7.03E-07,  avg # of iterations =  5.2

     total cpu time spent up to now is     1003.7 secs

     total energy              =   -1464.86804466 Ry
     estimated scf accuracy    <       0.00020157 Ry

     iteration # 12     ecut=    80.00 Ry     beta= 0.30
     Davidson diagonalization with overlap
     ethr =  4.58E-07,  avg # of iterations =  1.2

     total cpu time spent up to now is     1012.0 secs

     total energy              =   -1464.86803673 Ry
     estimated scf accuracy    <       0.00021758 Ry

     iteration # 13     ecut=    80.00 Ry     beta= 0.30
     Davidson diagonalization with overlap
     ethr =  4.58E-07,  avg # of iterations =  1.0

     total cpu time spent up to now is     1020.1 secs

     total energy              =   -1464.86799804 Ry
     estimated scf accuracy    <       0.00019403 Ry

     iteration # 14     ecut=    80.00 Ry     beta= 0.30
     Davidson diagonalization with overlap
     ethr =  4.41E-07,  avg # of iterations =  1.3

     total cpu time spent up to now is     1028.5 secs

     total energy              =   -1464.86799166 Ry
     estimated scf accuracy    <       0.00008146 Ry

     iteration # 15     ecut=    80.00 Ry     beta= 0.30
     Davidson diagonalization with overlap
     ethr =  1.85E-07,  avg # of iterations =  1.1

     total cpu time spent up to now is     1036.7 secs

     total energy              =   -1464.86795514 Ry
[...]
     Davidson diagonalization with overlap
     ethr =  2.74E-06,  avg # of iterations =  5.1

     total cpu time spent up to now is     1700.3 secs

     total energy              =   -1464.86809684 Ry
     estimated scf accuracy    <       0.00015200 Ry

     iteration #  6     ecut=    80.00 Ry     beta= 0.30
     Davidson diagonalization with overlap
     ethr =  3.45E-07,  avg # of iterations =  5.6

     total cpu time spent up to now is     1714.2 secs

     total energy              =   -1464.86801577 Ry
     estimated scf accuracy    <       0.00038370 Ry

     iteration #  7     ecut=    80.00 Ry     beta= 0.30
     Davidson diagonalization with overlap
     ethr =  3.45E-07,  avg # of iterations =  3.5

     total cpu time spent up to now is     1725.8 secs

     total energy              =   -1464.86810173 Ry
     estimated scf accuracy    <       0.00002200 Ry

     iteration #  8     ecut=    80.00 Ry     beta= 0.30
     Davidson diagonalization with overlap
     ethr =  5.00E-08,  avg # of iterations =  4.0

     total cpu time spent up to now is     1737.8 secs

     total energy              =   -1464.86811059 Ry
     estimated scf accuracy    <       0.00000598 Ry

     iteration #  9     ecut=    80.00 Ry     beta= 0.30
     Davidson diagonalization with overlap
     ethr =  1.36E-08,  avg # of iterations =  1.9

     total cpu time spent up to now is     1746.9 secs

     total energy              =   -1464.86810982 Ry
     estimated scf accuracy    <       0.00000297 Ry

     iteration # 10     ecut=    80.00 Ry     beta= 0.30
     Davidson diagonalization with overlap
     ethr =  6.74E-09,  avg # of iterations =  3.5

     total cpu time spent up to now is     1757.5 secs

     total energy              =   -1464.86811029 Ry
     estimated scf accuracy    <       0.00000014 Ry

     iteration # 11     ecut=    80.00 Ry     beta= 0.30
     Davidson diagonalization with overlap
     ethr =  3.17E-10,  avg # of iterations =  6.3

     total cpu time spent up to now is     1773.3 secs

     total energy              =   -1464.86811047 Ry
     estimated scf accuracy    <       0.00000006 Ry

     iteration # 12     ecut=    80.00 Ry     beta= 0.30
     Davidson diagonalization with overlap
     ethr =  1.39E-10,  avg # of iterations =  1.7

     total cpu time spent up to now is     1782.4 secs

     total energy              =   -1464.86811046 Ry
     estimated scf accuracy    <       0.00000010 Ry

     iteration # 13     ecut=    80.00 Ry     beta= 0.30
     Davidson diagonalization with overlap
     ethr =  1.39E-10,  avg # of iterations =  1.4

     total cpu time spent up to now is     1791.2 secs

     total energy              =   -1464.86811044 Ry
     estimated scf accuracy    <       0.00000005 Ry

     iteration # 14     ecut=    80.00 Ry     beta= 0.30
     Davidson diagonalization with overlap
     ethr =  1.20E-10,  avg # of iterations =  3.7

     total cpu time spent up to now is     1802.1 secs

     total energy              =   -1464.86811045 Ry
     estimated scf accuracy    <          1.1E-09 Ry

     iteration # 15     ecut=    80.00 Ry     beta= 0.30
     Davidson diagonalization with overlap
     ethr =  2.55E-12,  avg # of iterations =  6.6

     total cpu time spent up to now is     1819.3 secs

     total energy              =   -1464.86811046 Ry
     estimated scf accuracy    <          1.2E-09 Ry

     iteration # 16     ecut=    80.00 Ry     beta= 0.30
     Davidson diagonalization with overlap
     ethr =  2.55E-12,  avg # of iterations =  3.8

     total cpu time spent up to now is     1830.4 secs

     total energy              =   -1464.86811046 Ry
     estimated scf accuracy    <          6.8E-10 Ry

     iteration # 17     ecut=    80.00 Ry     beta= 0.30
     Davidson diagonalization with overlap
     ethr =  1.54E-12,  avg # of iterations =  3.3

     total cpu time spent up to now is     1841.1 secs

     End of self-consistent calculation

          k = 0.0000 0.0000 0.0000 (  9771 PWs)   bands (ev):

   -17.2337 -17.0815 -17.0815 -16.0057 -11.0159 -11.0159 -11.0159 -10.7950
   -10.7950  -2.8548  -2.8548  -2.8548  -0.9834   0.1129   0.1129   0.1129
     1.6295   1.6295   1.6295   1.7225   1.7225   1.7225

          k = 0.0000 0.0000 0.1230 (  9647 PWs)   bands (ev):

   -17.2236 -17.0814 -17.0783 -16.0082 -11.0168 -11.0168 -11.0158 -10.8240
   -10.7950  -2.8788  -2.8443  -2.8443  -1.3067   0.1142   0.1142   0.5540
     1.6172   1.6224   1.6224   1.7128   1.7128   1.7529

          k = 0.0000 0.0000 0.2461 (  9618 PWs)   bands (ev):

   -17.1989 -17.0811 -17.0705 -16.0143 -11.0191 -11.0191 -11.0158 -10.8940
   -10.7950  -2.9404  -2.8188  -2.8188  -1.7218   0.1162   0.1162   1.0941
     1.5879   1.6072   1.6072   1.6883   1.6883   2.0310

          k = 0.0000 0.0000 0.3691 (  9634 PWs)   bands (ev):

   -17.1736 -17.0808 -17.0629 -16.0203 -11.0214 -11.0214 -11.0157 -10.9641
   -10.7950  -3.0071  -2.7927  -2.7927  -1.9741   0.1164   0.1164   1.2231
     1.5591   1.5967   1.5967   1.6607   1.6607   2.6469

          k = 0.0000 0.0000-0.4921 (  9626 PWs)   bands (ev):

   -17.1630 -17.0807 -17.0597 -16.0228 -11.0224 -11.0224 -11.0157 -10.9933
   -10.7950  -3.0361  -2.7817  -2.7817  -2.0549   0.1160   0.1160   1.2302
     1.5473   1.5950   1.5950   1.6470   1.6470   2.9636

          k = 0.0000 0.1230 0.1230 (  9629 PWs)   bands (ev):

   -17.2137 -17.0797 -17.0766 -16.0105 -11.0177 -11.0168 -11.0168 -10.8381
   -10.8096  -2.8708  -2.8699  -2.8345  -1.5529   0.1175   0.2851   0.7323
     1.5823   1.6151   1.6409   1.7022   1.7344   1.7796

          k = 0.0000 0.1230 0.2461 (  9623 PWs)   bands (ev):

   -17.1895 -17.0787 -17.0692 -16.0160 -11.0200 -11.0191 -11.0167 -10.9022
   -10.8150  -2.9373  -2.8484  -2.8104  -1.9216   0.1246   0.3682   1.1059
     1.5440   1.5991   1.6395   1.6757   1.7260   2.1099

          k = 0.0000 0.1230 0.3691 (  9640 PWs)   bands (ev):

   -17.1650 -17.0781 -17.0613 -16.0216 -11.0222 -11.0214 -11.0166 -10.9711
   -10.8158  -3.0103  -2.8229  -2.7858  -2.1631   0.1302   0.3905   1.2147
     1.5276   1.5880   1.6208   1.6456   1.7086   2.7306

          k = 0.0000 0.1230-0.4921 (  9632 PWs)   bands (ev):

   -17.1548 -17.0779 -17.0579 -16.0239 -11.0231 -11.0223 -11.0166 -10.9999
   -10.8160  -3.0422  -2.8107  -2.7755  -2.2438   0.1321   0.3967   1.2241
     1.5283   1.5867   1.6072   1.6303   1.7009   3.0438

          k = 0.0000 0.2461 0.2461 (  9661 PWs)   bands (ev):

   -17.1671 -17.0738 -17.0645 -16.0203 -11.0221 -11.0190 -11.0189 -10.9400
   -10.8456  -2.9394  -2.9113  -2.7899  -2.2558   0.1446   0.7318   1.1522
     1.4997   1.5807   1.6444   1.6606   1.7758   2.4584

          k = 0.0000 0.2461 0.3691 (  9639 PWs)   bands (ev):

   -17.1458 -17.0701 -17.0572 -16.0246 -11.0242 -11.0212 -11.0188 -10.9972
   -10.8571  -3.0165  -2.8961  -2.7690  -2.4949   0.1641   0.8921   1.1957
     1.5052   1.5668   1.6091   1.6516   1.7878   3.0180

          k = 0.0000 0.2461-0.4921 (  9604 PWs)   bands (ev):

   -17.1375 -17.0686 -17.0535 -16.0264 -11.0250 -11.0234 -11.0221 -11.0188
   -10.8594  -3.0540  -2.8790  -2.7603  -2.5826   0.1720   0.9320   1.1992
     1.5347   1.5656   1.5900   1.6312   1.7877   3.3078

          k = 0.0000 0.3691 0.3691 (  9618 PWs)   bands (ev):

   -17.1299 -17.0591 -17.0523 -16.0277 -11.0390 -11.0261 -11.0211 -11.0210
   -10.8830  -3.0304  -2.9536  -2.7520  -2.7444   0.1989   1.1759   1.2436
     1.5214   1.5469   1.5704   1.6566   1.8406   3.4673

          k = 0.0000 0.3691-0.4921 (  9622 PWs)   bands (ev):

   -17.1245 -17.0545 -17.0490 -16.0290 -11.0602 -11.0269 -11.0220 -11.0210
   -10.8899  -3.0525  -2.9449  -2.8481  -2.7448   0.2135   1.1678   1.3486
     1.5429   1.5498   1.5635   1.6329   1.8565   3.7150

          k = 0.0000-0.4921-0.4921 (  9580 PWs)   bands (ev):

   -17.1204 -17.0472 -17.0472 -16.0301 -11.0792 -11.0277 -11.0219 -11.0219
   -10.8989  -3.0231  -2.9715  -2.9715  -2.7384   0.2313   1.1543   1.5331
     1.5331   1.5429   1.5779   1.5779   1.8826   3.9436

          k = 0.1230 0.1230 0.1230 (  9615 PWs)   bands (ev):

   -17.2038 -17.0764 -17.0764 -16.0125 -11.0177 -11.0177 -11.0177 -10.8381
   -10.8381  -2.8630  -2.8630  -2.8619  -1.7599   0.2877   0.2877   0.8580
     1.5774   1.5774   1.6665   1.7256   1.7256   1.8263

          k = 0.1230 0.1230 0.2461 (  9638 PWs)   bands (ev):

   -17.1799 -17.0761 -17.0684 -16.0175 -11.0200 -11.0199 -11.0176 -10.9072
   -10.8381  -2.9358  -2.8440  -2.8410  -2.0954   0.2933   0.4341   1.1159
     1.5351   1.5644   1.6717   1.7131   1.7190   2.1932

          k = 0.1230 0.1230 0.3691 (  9642 PWs)   bands (ev):

   -17.1561 -17.0758 -17.0600 -16.0225 -11.0224 -11.0220 -11.0176 -10.9765
   -10.8381  -3.0165  -2.8248  -2.8122  -2.3269   0.2974   0.4885   1.2119
     1.5116   1.5616   1.6464   1.6845   1.7136   2.8126

          k = 0.1230 0.1230-0.4921 (  9612 PWs)   bands (ev):

   -17.1462 -17.0756 -17.0563 -16.0246 -11.0233 -11.0229 -11.0175 -11.0052
   -10.8380  -3.0519  -2.8167  -2.7961  -2.4079   0.2988   0.5049   1.2259
     1.5058   1.5695   1.6318   1.6611   1.7144   3.1223

          k = 0.1230 0.2461 0.2461 (  9628 PWs)   bands (ev):

   -17.1574 -17.0712 -17.0644 -16.0211 -11.0221 -11.0199 -11.0199 -10.9400
   -10.8732  -2.9460  -2.9095  -2.8278  -2.3963   0.3604   0.7381   1.1570
     1.5012   1.5442   1.6878   1.7014   1.7695   2.5433

          k = 0.1230 0.2461 0.3691 (  9647 PWs)   bands (ev):

   -17.1359 -17.0685 -17.0565 -16.0248 -11.0242 -11.0221 -11.0198 -10.9987
   -10.8827  -3.0349  -2.8984  -2.8094  -2.6161   0.3833   0.9127   1.2085
     1.4908   1.5382   1.6607   1.6927   1.7856   3.0949

          k = 0.1230 0.2461-0.4921 (  9632 PWs)   bands (ev):

   -17.1276 -17.0675 -17.0524 -16.0263 -11.0254 -11.0251 -11.0230 -11.0198
   -10.8842  -3.0785  -2.8815  -2.7936  -2.7057   0.3915   0.9610   1.2210
     1.4967   1.5469   1.6556   1.6659   1.7887   3.3814

          k = 0.1230 0.3691 0.3691 (  9626 PWs)   bands (ev):

   -17.1193 -17.0583 -17.0521 -16.0270 -11.0390 -11.0262 -11.0221 -11.0220
   -10.9095  -3.0810  -2.9573  -2.8407  -2.7802   0.4239   1.2085   1.2525
     1.4887   1.5251   1.6443   1.6967   1.8404   3.5376

          k = 0.1230 0.3691-0.4921 (  9642 PWs)   bands (ev):

   -17.1138 -17.0542 -17.0486 -16.0280 -11.0603 -11.0271 -11.0230 -11.0220
   -10.9161  -3.1190  -2.9497  -2.9156  -2.7850   0.4396   1.2097   1.3567
     1.4994   1.5284   1.6478   1.6753   1.8572   3.7835

          k = 0.1230-0.4921-0.4921 (  9616 PWs)   bands (ev):

   -17.1097 -17.0469 -17.0469 -16.0287 -11.0792 -11.0279 -11.0230 -11.0230
   -10.9250  -3.1473  -2.9774  -2.9774  -2.7813   0.4586   1.2047   1.4981
     1.4981   1.5432   1.6486   1.6486   1.8836   4.0109

          k = 0.2461 0.2461 0.2461 (  9651 PWs)   bands (ev):

   -17.1345 -17.0639 -17.0639 -16.0231 -11.0223 -11.0223 -11.0217 -10.9399
   -10.9399  -2.9928  -2.9052  -2.9052  -2.6339   0.7531   0.7531   1.1866
     1.5020   1.5020   1.7512   1.7512   1.7573   2.8593

          k = 0.2461 0.2461 0.3691 (  9625 PWs)   bands (ev):

   -17.1131 -17.0635 -17.0547 -16.0251 -11.0247 -11.0240 -11.0221 -11.0070
   -10.9399  -3.1189  -2.9154  -2.9009  -2.7902   0.7674   1.0149   1.2429
     1.4804   1.5063   1.7330   1.7538   1.7932   3.3563

          k = 0.2461 0.2461-0.4921 (  9626 PWs)   bands (ev):

   -17.1051 -17.0633 -17.0499 -16.0259 -11.0349 -11.0257 -11.0248 -11.0221
   -10.9399  -3.1789  -2.8991  -2.8939  -2.8598   0.7732   1.0970   1.2672
     1.4751   1.5229   1.7240   1.7324   1.8060   3.6243

          k = 0.2461 0.3691 0.3691 (  9642 PWs)   bands (ev):

   -17.0939 -17.0558 -17.0516 -16.0254 -11.0389 -11.0266 -11.0245 -11.0243
   -10.9740  -3.2650  -2.9662  -2.9327  -2.8652   0.8977   1.2747   1.2849
     1.4748   1.4964   1.7515   1.7696   1.8403   3.7704

          k = 0.2461 0.3691-0.4921 (  9644 PWs)   bands (ev):

   -17.0879 -17.0533 -17.0474 -16.0255 -11.0610 -11.0275 -11.0254 -11.0245
   -10.9793  -3.3303  -2.9729  -2.9615  -2.8778   0.9210   1.3061   1.3807
     1.4755   1.5096   1.7542   1.7587   1.8593   4.0064

          k = 0.2461-0.4921-0.4921 (  9644 PWs)   bands (ev):

   -17.0834 -17.0464 -17.0464 -16.0253 -11.0791 -11.0284 -11.0255 -11.0255
   -10.9885  -3.3958  -2.9914  -2.9914  -2.8803   0.9524   1.3211   1.4776
     1.4776   1.5441   1.7570   1.7570   1.8859   4.2282

          k = 0.3691 0.3691 0.3691 (  9675 PWs)   bands (ev):

   -17.0703 -17.0510 -17.0510 -16.0237 -11.0389 -11.0389 -11.0270 -11.0270
   -11.0265  -3.4531  -2.9751  -2.9751  -2.9393   1.2981   1.2981   1.3617
     1.4782   1.4782   1.8223   1.8223   1.8501   4.1417

          k = 0.3691 0.3691-0.4921 (  9638 PWs)   bands (ev):

   -17.0632 -17.0508 -17.0463 -16.0230 -11.0659 -11.0388 -11.0281 -11.0276
   -11.0270  -3.5246  -2.9973  -2.9787  -2.9602   1.3083   1.3962   1.4322
     1.4719   1.4987   1.8289   1.8360   1.8680   4.3618

          k = 0.3691-0.4921-0.4921 (  9660 PWs)   bands (ev):

   -17.0568 -17.0458 -17.0458 -16.0220 -11.0791 -11.0524 -11.0288 -11.0280
   -11.0280  -3.5971  -3.0053  -3.0053  -2.9737   1.3839   1.4309   1.4740
     1.4740   1.5449   1.8513   1.8513   1.8881   4.5770

          k =-0.4921-0.4921-0.4921 (  9568 PWs)   bands (ev):

   -17.0456 -17.0456 -17.0456 -16.0206 -11.0790 -11.0790 -11.0290 -11.0290
   -11.0290  -3.6708  -3.0110  -3.0110  -3.0110   1.4746   1.4746   1.4746
     1.5452   1.5452   1.8891   1.8891   1.8891   4.7937

     highest occupied level (ev):     4.7937

!    total energy              =   -1464.86811046 Ry
     total all-electron energy =    -57937.803291 Ry
     estimated scf accuracy    <          9.7E-11 Ry

     The total energy is the sum of the following terms:
     one-electron contribution =    -149.94801629 Ry
     hartree contribution      =     104.65321455 Ry
     xc contribution           =     -82.61311151 Ry
     ewald contribution        =    -199.82559542 Ry
     one-center paw contrib.   =   -1137.13460178 Ry

     convergence has been achieved in  17 iterations

     Forces acting on atoms (cartesian axes, Ry/au):

     atom    1 type  2   force =     0.00000000    0.00000000    0.00000000
     atom    2 type  1   force =     0.00000000    0.00000000    0.00000000
     atom    3 type  3   force =     0.00000000    0.00000000    0.00000000
     atom    4 type  3   force =     0.00000000    0.00000000    0.00000000
     atom    5 type  3   force =     0.00000000    0.00000000    0.00000000
     The non-local contrib.  to forces
     atom    1 type  2   force =     0.00000000    0.00000000    0.00000000
     atom    2 type  1   force =     0.00000000    0.00000000    0.00000000
     atom    3 type  3   force =     0.00000000    0.00000000    0.00000000
     atom    4 type  3   force =     0.00000000    0.00000000    0.00000000
     atom    5 type  3   force =     0.00000000    0.00000000    0.00000000
     The ionic contribution  to forces
     atom    1 type  2   force =     0.00000000    0.00000000    0.00000000
     atom    2 type  1   force =    -0.00000000   -0.00000000   -0.00000000
     atom    3 type  3   force =    -0.00000000    0.00000000   -0.00000000
     atom    4 type  3   force =     0.00000000   -0.00000000   -0.00000000
     atom    5 type  3   force =    -0.00000000   -0.00000000    0.00000000
     The local contribution  to forces
     atom    1 type  2   force =    -0.00000000    0.00000000   -0.00000000
     atom    2 type  1   force =     0.00000000    0.00000000    0.00000000
     atom    3 type  3   force =     0.00000000    0.00000000    0.00000000
     atom    4 type  3   force =     0.00000000    0.00000000    0.00000000
     atom    5 type  3   force =     0.00000000    0.00000000    0.00000000
     The core correction contribution to forces
     atom    1 type  2   force =    -0.00000000    0.00000000    0.00000000
     atom    2 type  1   force =     0.00000000    0.00000000    0.00000000
     atom    3 type  3   force =     0.00000000    0.00000000    0.00000000
     atom    4 type  3   force =     0.00000000    0.00000000    0.00000000
     atom    5 type  3   force =     0.00000000    0.00000000    0.00000000
     The Hubbard contrib.    to forces
     atom    1 type  2   force =     0.00000000    0.00000000    0.00000000
     atom    2 type  1   force =     0.00000000    0.00000000    0.00000000
     atom    3 type  3   force =     0.00000000    0.00000000    0.00000000
     atom    4 type  3   force =     0.00000000    0.00000000    0.00000000
     atom    5 type  3   force =     0.00000000    0.00000000    0.00000000
     The SCF correction term to forces
     atom    1 type  2   force =    -0.00000000    0.00000000   -0.00000000
     atom    2 type  1   force =     0.00000000    0.00000000   -0.00000000
     atom    3 type  3   force =    -0.00000000   -0.00000000   -0.00000000
     atom    4 type  3   force =    -0.00000000   -0.00000000   -0.00000000
     atom    5 type  3   force =     0.00000000   -0.00000000    0.00000000

     Total force =     0.000000     Total SCF correction =     0.000000


     Computing stress (Cartesian axis) and pressure

          total   stress  (Ry/bohr**3)                   (kbar)     P=        0.41
   0.00000278   0.00000000   0.00000000            0.41        0.00        0.00
   0.00000000   0.00000278   0.00000000            0.00        0.41        0.00
   0.00000000   0.00000000   0.00000278            0.00        0.00        0.41


     Writing all to output data dir ../../tmp/cspbf3.save/

     init_run     :     23.30s CPU     23.78s WALL (       2 calls)
     electrons    :   1566.03s CPU   1619.87s WALL (       6 calls)
     update_pot   :     36.49s CPU     36.62s WALL (       4 calls)
     forces       :     40.33s CPU     40.95s WALL (       6 calls)
     stress       :    140.89s CPU    143.89s WALL (       6 calls)

     Called by init_run:
     wfcinit      :      5.77s CPU      5.94s WALL (       2 calls)
     potinit      :      6.62s CPU      6.69s WALL (       2 calls)
     hinit0       :      9.61s CPU      9.66s WALL (       2 calls)

     Called by electrons:
     c_bands      :   1135.83s CPU   1160.34s WALL (     147 calls)
     sum_band     :    221.68s CPU    238.08s WALL (     147 calls)
     v_of_rho     :     14.47s CPU     14.83s WALL (     153 calls)
     newd         :     76.41s CPU     88.96s WALL (     153 calls)
     PAW_pot      :    126.16s CPU    126.53s WALL (     157 calls)
     mix_rho      :      1.71s CPU      1.84s WALL (     147 calls)

     Called by c_bands:
     init_us_2    :     15.99s CPU     16.27s WALL (   10920 calls)
     init_us_2:cp :     15.97s CPU     16.26s WALL (   10920 calls)
     cegterg      :   1083.39s CPU   1107.47s WALL (    5145 calls)

     Called by *egterg:
     cdiaghg      :     17.35s CPU     17.45s WALL (   22842 calls)
     h_psi        :    718.72s CPU    741.68s WALL (   23052 calls)
     s_psi        :     89.49s CPU     89.84s WALL (   23052 calls)
     g_psi        :      2.38s CPU      2.39s WALL (   17837 calls)

     Called by h_psi:
     h_psi:calbec :    137.26s CPU    138.23s WALL (   23052 calls)
     vloc_psi     :    490.68s CPU    512.35s WALL (   23052 calls)
     add_vuspsi   :     89.46s CPU     89.79s WALL (   23052 calls)

     General routines
     calbec       :    194.71s CPU    195.92s WALL (   29387 calls)
     fft          :      7.94s CPU      8.43s WALL (    2131 calls)
     ffts         :      0.34s CPU      0.37s WALL (     300 calls)
     fftw         :    521.97s CPU    544.50s WALL (  775730 calls)
     interpolate  :      0.81s CPU      0.86s WALL (     153 calls)

     Parallel routines

     PWSCF        :  30m14.47s CPU  31m13.80s WALL


   This run was terminated on:  23:33:19  17Jun2026            

=------------------------------------------------------------------------------=
   JOB DONE.
=------------------------------------------------------------------------------=
