
     Program PWSCF v.7.2 starts on  4Jul2026 at 15:45:32 

     This program is part of the open-source Quantum ESPRESSO suite
     for quantum simulation of materials; please cite
         "P. Giannozzi et al., J. Phys.:Condens. Matter 21 395502 (2009);
         "P. Giannozzi et al., J. Phys.:Condens. Matter 29 465901 (2017);
         "P. Giannozzi et al., J. Chem. Phys. 152 154105 (2020);
          URL http://www.quantum-espresso.org", 
     in publications or presentations arising from this work. More details at
     http://www.quantum-espresso.org/quote

     Parallel version (MPI), running on     4 processors

     MPI processes distributed on     1 nodes
     22052 MiB available memory on the printing compute node when the environment starts

     Waiting for input...
     Reading input from standard input

     Current dimensions of program PWSCF are:
     Max number of different atomic species (ntypx) = 10
     Max number of k-points (npk) =  40000
     Max angular momentum in pseudopotentials (lmaxx) =  4

     Atomic positions and unit cell read from directory:
     ../../tmp/cspbf3_VF.save/

     file Cs.pbe-spn-kjpaw_psl.1.0.0.UPF: wavefunction(s)  5S 6S renormalized
     file Pb.pbe-dn-kjpaw_psl.1.0.0.UPF: wavefunction(s)  6S 6P 5D renormalized
     file F.pbe-n-kjpaw_psl.1.0.0.UPF: wavefunction(s)  2S 2P renormalized

     R & G space division:  proc/nbgrp/npool/nimage =       4
     Subspace diagonalization in iterative solution of the eigenvalue problem:
     a serial algorithm will be used


     Parallelization info
     --------------------
     sticks:   dense  smooth     PW     G-vecs:    dense   smooth      PW
     Min        4379    2189    584               436025   154131   21204
     Max        4381    2190    585               436026   154132   21207
     Sum       17521    8757   2337              1744101   616525   84823

     Using Slab Decomposition



     bravais-lattice index     =            1
     lattice parameter (alat)  =      18.5470  a.u.
     unit-cell volume          =    6380.0050 (a.u.)^3
     number of atoms/cell      =           39
     number of atomic types    =            3
     number of electrons       =       345.00
     number of Kohn-Sham states=           80
     kinetic-energy cutoff     =      80.0000  Ry
     charge density cutoff     =     640.0000  Ry
     Exchange-correlation= SLA  PW   PBX  PBC
                           (   1   4   3   4   0   0   0)

     celldm(1)=  18.547000  celldm(2)=   0.000000  celldm(3)=   0.000000
     celldm(4)=   0.000000  celldm(5)=   0.000000  celldm(6)=   0.000000

     crystal axes: (cart. coord. in units of alat)
               a(1) = (   1.000000   0.000000   0.000000 )  
               a(2) = (   0.000000   1.000000   0.000000 )  
               a(3) = (   0.000000   0.000000   1.000000 )  

     reciprocal axes: (cart. coord. in units 2 pi/alat)
               b(1) = (  1.000000  0.000000  0.000000 )  
               b(2) = (  0.000000  1.000000  0.000000 )  
               b(3) = (  0.000000  0.000000  1.000000 )  


     PseudoPot. # 1 for Cs read from file:
     ../../pseudo/Cs.pbe-spn-kjpaw_psl.1.0.0.UPF
     MD5 check sum: b82c75cc2e1f4ff73b6412cffeb9c584
     Pseudo is Projector augmented-wave + core cor, Zval =  9.0
     Generated using &quot;atomic&quot; code by A. Dal Corso  v.6.4.1
     Shape of augmentation charge: PSQ
     Using radial grid of 1251 points,  9 beta functions with: 
                l(1) =   0
                l(2) =   0
                l(3) =   0
                l(4) =   1
                l(5) =   1
                l(6) =   2
                l(7) =   2
                l(8) =   3
                l(9) =   3
     Q(r) pseudized with 0 coefficients 


     PseudoPot. # 2 for Pb read from file:
     ../../pseudo/Pb.pbe-dn-kjpaw_psl.1.0.0.UPF
     MD5 check sum: 8dd1fa6bc87c0adeb4efb5a3e91ed847
     Pseudo is Projector augmented-wave + core cor, Zval = 14.0
     Generated using &quot;atomic&quot; code by A. Dal Corso  v.6.3
     Shape of augmentation charge: PSQ
     Using radial grid of 1281 points,  6 beta functions with: 
                l(1) =   0
                l(2) =   0
                l(3) =   1
                l(4) =   1
                l(5) =   2
                l(6) =   2
     Q(r) pseudized with 0 coefficients 


     PseudoPot. # 3 for F  read from file:
     ../../pseudo/F.pbe-n-kjpaw_psl.1.0.0.UPF
     MD5 check sum: 66d718ea72839a4268ab2a9540e8cdd4
     Pseudo is Projector augmented-wave + core cor, Zval =  7.0
     Generated using &quot;atomic&quot; code by A. Dal Corso  v.6.3
     Shape of augmentation charge: PSQ
     Using radial grid of 1105 points,  4 beta functions with: 
                l(1) =   0
                l(2) =   0
                l(3) =   1
                l(4) =   1
     Q(r) pseudized with 0 coefficients 


     atomic species   valence    mass     pseudopotential
        Cs             9.00   132.91000     Cs( 1.00)
        Pb            14.00   207.20000     Pb( 1.00)
        F              7.00    18.99800     F ( 1.00)

     16 Sym. Ops., with inversion, found ( 8 have fractional translation)



   Cartesian axes

     site n.     atom                  positions (alat units)
         1           Pb  tau(   1) = (  -0.0030569  -0.0000000  -0.0000000  )
         2           Pb  tau(   2) = (   0.0004063  -0.0000000   0.5000000  )
         3           Pb  tau(   3) = (   0.0004063   0.5000000  -0.0000000  )
         4           Pb  tau(   4) = (   0.0052368   0.5000000   0.5000000  )
         5           Pb  tau(   5) = (   0.5030569  -0.0000000   0.0000000  )
         6           Pb  tau(   6) = (   0.4995937   0.0000000   0.5000000  )
         7           Pb  tau(   7) = (   0.4995937   0.5000000  -0.0000000  )
         8           Pb  tau(   8) = (   0.4947632   0.5000000   0.5000000  )
         9           Cs  tau(   9) = (   0.2500000   0.2427495   0.2427495  )
        10           Cs  tau(  10) = (   0.2500000   0.2427495   0.7572505  )
        11           Cs  tau(  11) = (   0.2500000   0.7572505   0.2427495  )
        12           Cs  tau(  12) = (   0.2500000   0.7572505   0.7572505  )
        13           Cs  tau(  13) = (   0.7500000   0.2550674   0.2550674  )
        14           Cs  tau(  14) = (   0.7500000   0.2550674   0.7449326  )
        15           Cs  tau(  15) = (   0.7500000   0.7449326   0.2550674  )
        16           Cs  tau(  16) = (   0.7500000   0.7449326   0.7449326  )
        17           F   tau(  17) = (   0.0028605   0.2495178  -0.0000000  )
        18           F   tau(  18) = (  -0.0014325   0.2498392   0.5000000  )
        19           F   tau(  19) = (   0.0028605   0.7504822  -0.0000000  )
        20           F   tau(  20) = (  -0.0014325   0.7501608   0.5000000  )
        21           F   tau(  21) = (   0.4971395   0.2495178  -0.0000000  )
        22           F   tau(  22) = (   0.5014325   0.2498392   0.5000000  )
        23           F   tau(  23) = (   0.4971395   0.7504822  -0.0000000  )
        24           F   tau(  24) = (   0.5014325   0.7501608   0.5000000  )
        25           F   tau(  25) = (   0.2500000   0.0000000   0.0000000  )
        26           F   tau(  26) = (   0.2500000   0.0000000   0.5000000  )
        27           F   tau(  27) = (   0.2500000   0.5000000   0.0000000  )
        28           F   tau(  28) = (   0.7500000   0.0000000   0.0000000  )
        29           F   tau(  29) = (   0.7500000   0.0000000   0.5000000  )
        30           F   tau(  30) = (   0.7500000   0.5000000   0.0000000  )
        31           F   tau(  31) = (   0.7500000   0.5000000   0.5000000  )
        32           F   tau(  32) = (   0.0028605  -0.0000000   0.2495178  )
        33           F   tau(  33) = (   0.0028605   0.0000000   0.7504822  )
        34           F   tau(  34) = (  -0.0014325   0.5000000   0.2498392  )
        35           F   tau(  35) = (  -0.0014325   0.5000000   0.7501608  )
        36           F   tau(  36) = (   0.4971395   0.0000000   0.2495178  )
        37           F   tau(  37) = (   0.4971395  -0.0000000   0.7504822  )
        38           F   tau(  38) = (   0.5014325   0.5000000   0.2498392  )
        39           F   tau(  39) = (   0.5014325   0.5000000   0.7501608  )

     number of k points=    51  Gaussian smearing, width (Ry)=  0.0300
                       cart. coord. in units 2pi/alat
        k(    1) = (   0.0000000   0.0000000   0.0000000), wk =   0.0392157
        k(    2) = (   0.0500000   0.0000000   0.0000000), wk =   0.0392157
        k(    3) = (   0.1000000   0.0000000   0.0000000), wk =   0.0392157
        k(    4) = (   0.1500000   0.0000000   0.0000000), wk =   0.0392157
        k(    5) = (   0.2000000   0.0000000   0.0000000), wk =   0.0392157
        k(    6) = (   0.2500000   0.0000000   0.0000000), wk =   0.0392157
        k(    7) = (   0.3000000   0.0000000   0.0000000), wk =   0.0392157
        k(    8) = (   0.3500000   0.0000000   0.0000000), wk =   0.0392157
        k(    9) = (   0.4000000   0.0000000   0.0000000), wk =   0.0392157
        k(   10) = (   0.4500000   0.0000000   0.0000000), wk =   0.0392157
        k(   11) = (   0.5000000   0.0000000   0.0000000), wk =   0.0392157
        k(   12) = (   0.5000000   0.0500000   0.0000000), wk =   0.0392157
        k(   13) = (   0.5000000   0.1000000   0.0000000), wk =   0.0392157
        k(   14) = (   0.5000000   0.1500000   0.0000000), wk =   0.0392157
        k(   15) = (   0.5000000   0.2000000   0.0000000), wk =   0.0392157
        k(   16) = (   0.5000000   0.2500000   0.0000000), wk =   0.0392157
        k(   17) = (   0.5000000   0.3000000   0.0000000), wk =   0.0392157
        k(   18) = (   0.5000000   0.3500000   0.0000000), wk =   0.0392157
        k(   19) = (   0.5000000   0.4000000   0.0000000), wk =   0.0392157
        k(   20) = (   0.5000000   0.4500000   0.0000000), wk =   0.0392157
        k(   21) = (   0.5000000   0.5000000   0.0000000), wk =   0.0392157
        k(   22) = (   0.4500000   0.4500000   0.0000000), wk =   0.0392157
        k(   23) = (   0.4000000   0.4000000   0.0000000), wk =   0.0392157
        k(   24) = (   0.3500000   0.3500000   0.0000000), wk =   0.0392157
        k(   25) = (   0.3000000   0.3000000   0.0000000), wk =   0.0392157
        k(   26) = (   0.2500000   0.2500000   0.0000000), wk =   0.0392157
        k(   27) = (   0.2000000   0.2000000   0.0000000), wk =   0.0392157
        k(   28) = (   0.1500000   0.1500000   0.0000000), wk =   0.0392157
        k(   29) = (   0.1000000   0.1000000   0.0000000), wk =   0.0392157
        k(   30) = (   0.0500000   0.0500000   0.0000000), wk =   0.0392157
        k(   31) = (   0.0000000   0.0000000   0.0000000), wk =   0.0392157
        k(   32) = (   0.0500000   0.0500000   0.0500000), wk =   0.0392157
        k(   33) = (   0.1000000   0.1000000   0.1000000), wk =   0.0392157
        k(   34) = (   0.1500000   0.1500000   0.1500000), wk =   0.0392157
        k(   35) = (   0.2000000   0.2000000   0.2000000), wk =   0.0392157
        k(   36) = (   0.2500000   0.2500000   0.2500000), wk =   0.0392157
        k(   37) = (   0.3000000   0.3000000   0.3000000), wk =   0.0392157
        k(   38) = (   0.3500000   0.3500000   0.3500000), wk =   0.0392157
        k(   39) = (   0.4000000   0.4000000   0.4000000), wk =   0.0392157
        k(   40) = (   0.4500000   0.4500000   0.4500000), wk =   0.0392157
        k(   41) = (   0.5000000   0.5000000   0.5000000), wk =   0.0392157
        k(   42) = (   0.5000000   0.4500000   0.4500000), wk =   0.0392157
        k(   43) = (   0.5000000   0.4000000   0.4000000), wk =   0.0392157
        k(   44) = (   0.5000000   0.3500000   0.3500000), wk =   0.0392157
        k(   45) = (   0.5000000   0.3000000   0.3000000), wk =   0.0392157
        k(   46) = (   0.5000000   0.2500000   0.2500000), wk =   0.0392157
        k(   47) = (   0.5000000   0.2000000   0.2000000), wk =   0.0392157
        k(   48) = (   0.5000000   0.1500000   0.1500000), wk =   0.0392157
        k(   49) = (   0.5000000   0.1000000   0.1000000), wk =   0.0392157
        k(   50) = (   0.5000000   0.0500000   0.0500000), wk =   0.0392157
        k(   51) = (   0.5000000   0.0000000   0.0000000), wk =   0.0392157

     Dense  grid:  1744101 G-vectors     FFT dimensions: ( 150, 150, 150)

     Smooth grid:   616525 G-vectors     FFT dimensions: ( 108, 108, 108)

     Estimated max dynamical RAM per process >       4.32 GB

     Estimated total dynamical RAM >      17.29 GB

     The potential is recalculated from file :
     ../../tmp/cspbf3_VF.save/charge-density

     Starting wfcs are  204 randomized atomic wfcs
     Checking if some PAW data can be deallocated... 

     Band Structure Calculation
     CG style diagonalization
     c_bands:  6 eigenvalues not converged
     c_bands:  7 eigenvalues not converged
     c_bands:  7 eigenvalues not converged
     c_bands:  6 eigenvalues not converged
     c_bands:  5 eigenvalues not converged
     c_bands:  7 eigenvalues not converged
     c_bands:  4 eigenvalues not converged
     c_bands:  5 eigenvalues not converged
     c_bands:  6 eigenvalues not converged
     c_bands:  2 eigenvalues not converged
     c_bands:  2 eigenvalues not converged
     c_bands:  6 eigenvalues not converged
     c_bands:  3 eigenvalues not converged
     c_bands:  4 eigenvalues not converged
     c_bands:  2 eigenvalues not converged
     c_bands:  7 eigenvalues not converged
     c_bands:  4 eigenvalues not converged
     c_bands:  5 eigenvalues not converged
     c_bands:  5 eigenvalues not converged
     c_bands:  5 eigenvalues not converged
     c_bands:  5 eigenvalues not converged
     c_bands:  5 eigenvalues not converged
     c_bands:  6 eigenvalues not converged
     c_bands:  4 eigenvalues not converged
     c_bands:  5 eigenvalues not converged
     c_bands:  7 eigenvalues not converged
     c_bands:  8 eigenvalues not converged
     c_bands:  7 eigenvalues not converged
     c_bands:  6 eigenvalues not converged
     c_bands:  8 eigenvalues not converged
     c_bands:  6 eigenvalues not converged
     c_bands:  7 eigenvalues not converged
     c_bands:  6 eigenvalues not converged
     c_bands:  7 eigenvalues not converged
     c_bands:  6 eigenvalues not converged
     c_bands:  6 eigenvalues not converged
     c_bands:  7 eigenvalues not converged
     c_bands:  7 eigenvalues not converged
     c_bands:  7 eigenvalues not converged
     c_bands:  7 eigenvalues not converged
     c_bands:  8 eigenvalues not converged
     c_bands:  6 eigenvalues not converged
     c_bands:  7 eigenvalues not converged
     c_bands:  5 eigenvalues not converged
     c_bands:  4 eigenvalues not converged
     c_bands:  5 eigenvalues not converged
     c_bands:  3 eigenvalues not converged
     c_bands:  4 eigenvalues not converged
     c_bands:  3 eigenvalues not converged
     c_bands:  6 eigenvalues not converged
     c_bands:  4 eigenvalues not converged

     ethr =  2.90E-10,  avg # of iterations = 60.2

     total cpu time spent up to now is    34626.6 secs

     End of band structure calculation

          k = 0.0000 0.0000 0.0000 ( 77053 PWs)   bands (ev):

   -17.3170 -17.2605 -17.2448 -17.2419 -17.1992 -17.1990 -17.1948 -17.1857
   -17.1704 -17.1550 -17.1546 -17.1428 -17.1428 -17.1335 -17.1335 -17.1185
   -17.1185 -17.1173 -17.1132 -17.1132 -17.1105 -17.0941 -17.0225 -16.1252
   -16.1252 -16.1244 -16.1149 -16.0622 -16.0622 -16.0604 -16.0489 -11.1612
   -11.1585 -11.1557 -11.1543 -11.1252 -11.1129 -11.1129 -11.1114 -11.1104
   -11.1103 -11.1103 -11.1094 -11.1090 -11.1066 -11.1066 -11.1041 -11.1041
   -11.0972 -11.0972 -11.0926 -11.0924 -11.0907 -11.0907 -11.0809 -11.0809
   -11.0802 -11.0640 -11.0562 -11.0562 -11.0525 -11.0525 -11.0422 -10.9871
   -10.9697 -10.9591 -10.8963 -10.8772 -10.8728 -10.8718 -10.8705  -3.7005
    -3.1905  -3.1331  -3.1193  -3.1141  -3.1026  -3.1020  -3.1020  -3.0796

          k = 0.0500 0.0000 0.0000 ( 77093 PWs)   bands (ev):

   -17.3166 -17.2605 -17.2445 -17.2422 -17.1992 -17.1991 -17.1949 -17.1855
   -17.1703 -17.1550 -17.1545 -17.1427 -17.1427 -17.1336 -17.1336 -17.1185
   -17.1185 -17.1175 -17.1132 -17.1132 -17.1107 -17.0943 -17.0225 -16.1252
   -16.1252 -16.1244 -16.1149 -16.0622 -16.0622 -16.0604 -16.0490 -11.1605
   -11.1575 -11.1557 -11.1541 -11.1246 -11.1129 -11.1129 -11.1114 -11.1104
   -11.1103 -11.1103 -11.1094 -11.1090 -11.1066 -11.1066 -11.1042 -11.1042
   -11.0971 -11.0971 -11.0926 -11.0924 -11.0907 -11.0907 -11.0809 -11.0809
   -11.0803 -11.0643 -11.0562 -11.0562 -11.0526 -11.0526 -11.0416 -10.9880
   -10.9694 -10.9588 -10.8967 -10.8779 -10.8739 -10.8718 -10.8707  -3.6978
    -3.1923  -3.1370  -3.1218  -3.1126  -3.1019  -3.1019  -3.1016  -3.0780

          k = 0.1000 0.0000 0.0000 ( 77145 PWs)   bands (ev):

   -17.3155 -17.2604 -17.2435 -17.2428 -17.1996 -17.1990 -17.1952 -17.1850
   -17.1702 -17.1552 -17.1544 -17.1426 -17.1426 -17.1337 -17.1337 -17.1184
   -17.1184 -17.1180 -17.1133 -17.1133 -17.1113 -17.0947 -17.0225 -16.1252
   -16.1252 -16.1244 -16.1148 -16.0622 -16.0622 -16.0604 -16.0490 -11.1587
   -11.1557 -11.1545 -11.1533 -11.1226 -11.1127 -11.1127 -11.1114 -11.1104
   -11.1102 -11.1102 -11.1094 -11.1090 -11.1067 -11.1067 -11.1043 -11.1043
   -11.0970 -11.0970 -11.0926 -11.0924 -11.0909 -11.0909 -11.0809 -11.0809
   -11.0808 -11.0652 -11.0562 -11.0562 -11.0526 -11.0526 -11.0399 -10.9905
   -10.9685 -10.9580 -10.8979 -10.8801 -10.8771 -10.8718 -10.8710  -3.6898
    -3.1975  -3.1481  -3.1275  -3.1088  -3.1016  -3.1016  -3.1008  -3.0736

          k = 0.1500 0.0000 0.0000 ( 77153 PWs)   bands (ev):

   -17.3136 -17.2606 -17.2437 -17.2419 -17.2003 -17.1989 -17.1957 -17.1843
   -17.1701 -17.1554 -17.1543 -17.1423 -17.1423 -17.1339 -17.1339 -17.1188
   -17.1183 -17.1183 -17.1135 -17.1135 -17.1123 -17.0954 -17.0225 -16.1252
   -16.1252 -16.1243 -16.1147 -16.0622 -16.0622 -16.0605 -16.0492 -11.1570
   -11.1557 -11.1508 -11.1497 -11.1195 -11.1126 -11.1126 -11.1113 -11.1105
   -11.1100 -11.1100 -11.1094 -11.1090 -11.1069 -11.1069 -11.1045 -11.1045
   -11.0968 -11.0968 -11.0926 -11.0924 -11.0911 -11.0911 -11.0816 -11.0809
   -11.0809 -11.0667 -11.0561 -11.0561 -11.0527 -11.0527 -11.0370 -10.9943
   -10.9670 -10.9570 -10.8998 -10.8840 -10.8822 -10.8718 -10.8713  -3.6765
    -3.2071  -3.1641  -3.1334  -3.1033  -3.1010  -3.1010  -3.1007  -3.0662

          k = 0.2000 0.0000 0.0000 ( 77225 PWs)   bands (ev):

   -17.3110 -17.2613 -17.2444 -17.2398 -17.2013 -17.1988 -17.1961 -17.1834
   -17.1699 -17.1556 -17.1542 -17.1419 -17.1419 -17.1342 -17.1342 -17.1198
   -17.1181 -17.1181 -17.1138 -17.1138 -17.1136 -17.0963 -17.0225 -16.1251
   -16.1251 -16.1243 -16.1145 -16.0622 -16.0622 -16.0605 -16.0493 -11.1562
   -11.1557 -11.1458 -11.1433 -11.1155 -11.1123 -11.1123 -11.1113 -11.1105
   -11.1097 -11.1097 -11.1093 -11.1090 -11.1072 -11.1072 -11.1047 -11.1047
   -11.0966 -11.0966 -11.0926 -11.0924 -11.0913 -11.0913 -11.0825 -11.0809
   -11.0809 -11.0689 -11.0559 -11.0559 -11.0529 -11.0529 -11.0333 -10.9991
   -10.9649 -10.9560 -10.9025 -10.8893 -10.8887 -10.8718 -10.8715  -3.6582
    -3.2234  -3.1812  -3.1385  -3.1013  -3.1003  -3.1003  -3.0968  -3.0560

          k = 0.2500 0.0000 0.0000 ( 77165 PWs)   bands (ev):

   -17.3078 -17.2630 -17.2447 -17.2373 -17.2026 -17.1990 -17.1965 -17.1824
   -17.1696 -17.1559 -17.1542 -17.1414 -17.1414 -17.1346 -17.1346 -17.1211
   -17.1179 -17.1179 -17.1150 -17.1141 -17.1141 -17.0973 -17.0225 -16.1251
   -16.1251 -16.1242 -16.1143 -16.0623 -16.0623 -16.0606 -16.0495 -11.1560
   -11.1557 -11.1393 -11.1358 -11.1120 -11.1120 -11.1112 -11.1107 -11.1105
   -11.1094 -11.1094 -11.1093 -11.1090 -11.1075 -11.1075 -11.1051 -11.1051
   -11.0962 -11.0962 -11.0926 -11.0924 -11.0916 -11.0916 -11.0836 -11.0809
   -11.0809 -11.0718 -11.0557 -11.0557 -11.0530 -11.0530 -11.0295 -11.0038
   -10.9620 -10.9552 -10.9066 -10.8959 -10.8955 -10.8718 -10.8716  -3.6352
    -3.2491  -3.1949  -3.1424  -3.1022  -3.0995  -3.0995  -3.0899  -3.0435

          k = 0.3000 0.0000 0.0000 ( 77081 PWs)   bands (ev):

   -17.3040 -17.2656 -17.2443 -17.2345 -17.2042 -17.1994 -17.1966 -17.1814
   -17.1694 -17.1562 -17.1541 -17.1409 -17.1409 -17.1351 -17.1351 -17.1223
   -17.1177 -17.1177 -17.1165 -17.1144 -17.1144 -17.0982 -17.0225 -16.1251
   -16.1251 -16.1242 -16.1141 -16.0623 -16.0623 -16.0606 -16.0497 -11.1558
   -11.1557 -11.1317 -11.1277 -11.1116 -11.1116 -11.1112 -11.1106 -11.1093
   -11.1091 -11.1091 -11.1090 -11.1079 -11.1079 -11.1054 -11.1054 -11.1054
   -11.0959 -11.0959 -11.0926 -11.0925 -11.0920 -11.0920 -11.0845 -11.0809
   -11.0809 -11.0755 -11.0555 -11.0555 -11.0532 -11.0532 -11.0284 -11.0055
   -10.9584 -10.9546 -10.9138 -10.9034 -10.9006 -10.8718 -10.8717  -3.6078
    -3.2827  -3.2045  -3.1453  -3.1033  -3.0987  -3.0987  -3.0836  -3.0395

          k = 0.3500 0.0000 0.0000 ( 77033 PWs)   bands (ev):

   -17.2999 -17.2690 -17.2436 -17.2317 -17.2059 -17.1999 -17.1965 -17.1804
   -17.1691 -17.1565 -17.1540 -17.1403 -17.1403 -17.1356 -17.1356 -17.1236
   -17.1178 -17.1175 -17.1175 -17.1147 -17.1147 -17.0990 -17.0225 -16.1250
   -16.1250 -16.1241 -16.1140 -16.0623 -16.0623 -16.0607 -16.0498 -11.1558
   -11.1557 -11.1235 -11.1201 -11.1112 -11.1112 -11.1111 -11.1107 -11.1093
   -11.1091 -11.1087 -11.1087 -11.1083 -11.1083 -11.1059 -11.1059 -11.0995
   -11.0955 -11.0955 -11.0926 -11.0925 -11.0924 -11.0924 -11.0850 -11.0810
   -11.0809 -11.0801 -11.0553 -11.0553 -11.0534 -11.0534 -11.0330 -11.0013
   -10.9543 -10.9540 -10.9238 -10.9114 -10.9034 -10.8718 -10.8717  -3.5767
    -3.3207  -3.2115  -3.1473  -3.1044  -3.0980  -3.0980  -3.0789  -3.0348

          k = 0.4000 0.0000 0.0000 ( 77049 PWs)   bands (ev):

   -17.2957 -17.2729 -17.2429 -17.2290 -17.2076 -17.2004 -17.1964 -17.1796
   -17.1689 -17.1567 -17.1540 -17.1398 -17.1398 -17.1360 -17.1360 -17.1246
   -17.1188 -17.1172 -17.1172 -17.1150 -17.1150 -17.0997 -17.0225 -16.1250
   -16.1250 -16.1241 -16.1138 -16.0623 -16.0623 -16.0607 -16.0500 -11.1557
   -11.1557 -11.1151 -11.1141 -11.1110 -11.1107 -11.1107 -11.1107 -11.1092
   -11.1091 -11.1087 -11.1087 -11.1082 -11.1082 -11.1063 -11.1063 -11.0950
   -11.0950 -11.0943 -11.0928 -11.0928 -11.0926 -11.0925 -11.0855 -11.0833
   -11.0810 -11.0809 -11.0551 -11.0551 -11.0537 -11.0537 -11.0411 -10.9934
   -10.9542 -10.9486 -10.9347 -10.9197 -10.9050 -10.8718 -10.8717  -3.5432
    -3.3601  -3.2164  -3.1485  -3.1054  -3.0974  -3.0974  -3.0761  -3.0279

          k = 0.4500 0.0000 0.0000 ( 77080 PWs)   bands (ev):

   -17.2919 -17.2765 -17.2423 -17.2270 -17.2090 -17.2008 -17.1964 -17.1791
   -17.1687 -17.1568 -17.1540 -17.1393 -17.1393 -17.1365 -17.1365 -17.1253
   -17.1195 -17.1170 -17.1170 -17.1153 -17.1153 -17.1001 -17.0225 -16.1250
   -16.1250 -16.1241 -16.1138 -16.0624 -16.0624 -16.0608 -16.0500 -11.1557
   -11.1557 -11.1110 -11.1108 -11.1103 -11.1102 -11.1102 -11.1092 -11.1092
   -11.1092 -11.1091 -11.1078 -11.1078 -11.1069 -11.1068 -11.1068 -11.0946
   -11.0946 -11.0932 -11.0932 -11.0926 -11.0925 -11.0923 -11.0918 -11.0810
   -11.0809 -11.0776 -11.0549 -11.0549 -11.0538 -11.0538 -11.0501 -10.9850
   -10.9544 -10.9445 -10.9425 -10.9277 -10.9059 -10.8718 -10.8717  -3.5105
    -3.3968  -3.2193  -3.1491  -3.1060  -3.0970  -3.0970  -3.0747  -3.0282

          k = 0.5000 0.0000 0.0000 ( 76940 PWs)   bands (ev):

   -17.2900 -17.2783 -17.2421 -17.2263 -17.2096 -17.2009 -17.1964 -17.1789
   -17.1687 -17.1569 -17.1540 -17.1391 -17.1391 -17.1366 -17.1366 -17.1255
   -17.1197 -17.1169 -17.1169 -17.1154 -17.1154 -17.1002 -17.0225 -16.1250
   -16.1250 -16.1241 -16.1137 -16.0624 -16.0624 -16.0608 -16.0501 -11.1557
   -11.1557 -11.1109 -11.1109 -11.1098 -11.1098 -11.1097 -11.1097 -11.1092
   -11.1092 -11.1091 -11.1073 -11.1073 -11.1072 -11.1072 -11.0999 -11.0980
   -11.0944 -11.0944 -11.0934 -11.0934 -11.0925 -11.0925 -11.0921 -11.0810
   -11.0809 -11.0731 -11.0553 -11.0549 -11.0549 -11.0539 -11.0539 -10.9807
   -10.9549 -10.9488 -10.9364 -10.9345 -10.9062 -10.8718 -10.8718  -3.4925
    -3.4161  -3.2203  -3.1493  -3.1062  -3.0969  -3.0968  -3.0743  -3.0283

          k = 0.5000 0.0500 0.0000 ( 77066 PWs)   bands (ev):

   -17.2898 -17.2780 -17.2419 -17.2263 -17.2095 -17.2009 -17.1962 -17.1789
   -17.1686 -17.1568 -17.1539 -17.1394 -17.1391 -17.1370 -17.1366 -17.1257
   -17.1199 -17.1169 -17.1169 -17.1158 -17.1154 -17.1002 -17.0225 -16.1250
   -16.1249 -16.1241 -16.1138 -16.0624 -16.0623 -16.0608 -16.0501 -11.1549
   -11.1549 -11.1109 -11.1108 -11.1098 -11.1098 -11.1097 -11.1096 -11.1092
   -11.1092 -11.1086 -11.1073 -11.1073 -11.1072 -11.1072 -11.0995 -11.0975
   -11.0945 -11.0944 -11.0934 -11.0934 -11.0926 -11.0925 -11.0915 -11.0810
   -11.0809 -11.0728 -11.0552 -11.0549 -11.0546 -11.0539 -11.0539 -10.9809
   -10.9552 -10.9493 -10.9369 -10.9349 -10.9066 -10.8727 -10.8726  -3.4899
    -3.4134  -3.2198  -3.1489  -3.1060  -3.0960  -3.0957  -3.0739  -3.0271

          k = 0.5000 0.1000 0.0000 ( 77056 PWs)   bands (ev):

   -17.2892 -17.2769 -17.2414 -17.2263 -17.2094 -17.2007 -17.1958 -17.1788
   -17.1684 -17.1566 -17.1536 -17.1403 -17.1391 -17.1380 -17.1366 -17.1264
   -17.1201 -17.1170 -17.1170 -17.1169 -17.1155 -17.1000 -17.0224 -16.1250
   -16.1248 -16.1241 -16.1139 -16.0623 -16.0621 -16.0608 -16.0504 -11.1525
   -11.1524 -11.1108 -11.1108 -11.1098 -11.1097 -11.1097 -11.1096 -11.1092
   -11.1092 -11.1075 -11.1073 -11.1073 -11.1072 -11.1072 -11.0985 -11.0956
   -11.0946 -11.0944 -11.0934 -11.0934 -11.0926 -11.0925 -11.0894 -11.0810
   -11.0809 -11.0719 -11.0552 -11.0549 -11.0539 -11.0539 -11.0538 -10.9818
   -10.9561 -10.9510 -10.9383 -10.9360 -10.9077 -10.8753 -10.8753  -3.4821
    -3.4055  -3.2186  -3.1475  -3.1057  -3.0936  -3.0922  -3.0724  -3.0251

          k = 0.5000 0.1500 0.0000 ( 77064 PWs)   bands (ev):

   -17.2882 -17.2751 -17.2407 -17.2266 -17.2095 -17.2003 -17.1948 -17.1788
   -17.1682 -17.1562 -17.1531 -17.1417 -17.1397 -17.1390 -17.1365 -17.1277
   -17.1204 -17.1188 -17.1171 -17.1170 -17.1155 -17.0997 -17.0223 -16.1249
   -16.1245 -16.1241 -16.1142 -16.0623 -16.0617 -16.0609 -16.0507 -11.1486
   -11.1486 -11.1107 -11.1107 -11.1098 -11.1097 -11.1097 -11.1095 -11.1092
   -11.1092 -11.1073 -11.1073 -11.1072 -11.1072 -11.1065 -11.0980 -11.0947
   -11.0944 -11.0937 -11.0934 -11.0926 -11.0926 -11.0914 -11.0851 -11.0810
   -11.0810 -11.0702 -11.0552 -11.0549 -11.0539 -11.0539 -11.0523 -10.9832
   -10.9579 -10.9546 -10.9407 -10.9370 -10.9094 -10.8796 -10.8794  -3.4693
    -3.3925  -3.2176  -3.1444  -3.1067  -3.0895  -3.0864  -3.0689  -3.0222

          k = 0.5000 0.2000 0.0000 ( 77064 PWs)   bands (ev):

   -17.2869 -17.2727 -17.2396 -17.2273 -17.2101 -17.1995 -17.1931 -17.1787
   -17.1678 -17.1557 -17.1524 -17.1435 -17.1419 -17.1389 -17.1364 -17.1297
   -17.1213 -17.1206 -17.1171 -17.1171 -17.1156 -17.0994 -17.0222 -16.1249
   -16.1242 -16.1241 -16.1145 -16.0622 -16.0613 -16.0609 -16.0512 -11.1437
   -11.1435 -11.1106 -11.1106 -11.1098 -11.1097 -11.1096 -11.1094 -11.1092
   -11.1091 -11.1073 -11.1073 -11.1072 -11.1071 -11.1062 -11.0980 -11.0948
   -11.0944 -11.0937 -11.0934 -11.0927 -11.0926 -11.0852 -11.0811 -11.0810
   -11.0787 -11.0677 -11.0552 -11.0549 -11.0539 -11.0539 -11.0501 -10.9854
   -10.9610 -10.9604 -10.9438 -10.9374 -10.9114 -10.8852 -10.8847  -3.4519
    -3.3748  -3.2180  -3.1388  -3.1101  -3.0835  -3.0786  -3.0629  -3.0177

          k = 0.5000 0.2500 0.0000 ( 77076 PWs)   bands (ev):

   -17.2855 -17.2697 -17.2381 -17.2285 -17.2113 -17.1983 -17.1904 -17.1786
   -17.1672 -17.1550 -17.1515 -17.1455 -17.1448 -17.1388 -17.1364 -17.1321
   -17.1242 -17.1207 -17.1172 -17.1171 -17.1157 -17.0991 -17.0220 -16.1249
   -16.1241 -16.1238 -16.1149 -16.0621 -16.0610 -16.0607 -16.0518 -11.1380
   -11.1376 -11.1105 -11.1105 -11.1098 -11.1097 -11.1095 -11.1093 -11.1092
   -11.1092 -11.1073 -11.1073 -11.1072 -11.1071 -11.1063 -11.0985 -11.0949
   -11.0944 -11.0938 -11.0934 -11.0928 -11.0927 -11.0811 -11.0811 -11.0771
   -11.0706 -11.0641 -11.0552 -11.0549 -11.0539 -11.0538 -11.0470 -10.9885
   -10.9682 -10.9658 -10.9474 -10.9371 -10.9136 -10.8918 -10.8905  -3.4304
    -3.3529  -3.2210  -3.1301  -3.1165  -3.0753  -3.0691  -3.0547  -3.0130

          k = 0.5000 0.3000 0.0000 ( 77080 PWs)   bands (ev):

   -17.2841 -17.2664 -17.2364 -17.2303 -17.2131 -17.1967 -17.1869 -17.1786
   -17.1664 -17.1542 -17.1506 -17.1482 -17.1475 -17.1387 -17.1363 -17.1348
   -17.1275 -17.1207 -17.1173 -17.1172 -17.1158 -17.0988 -17.0219 -16.1249
   -16.1242 -16.1234 -16.1153 -16.0620 -16.0611 -16.0600 -16.0524 -11.1321
   -11.1314 -11.1103 -11.1103 -11.1097 -11.1097 -11.1094 -11.1092 -11.1092
   -11.1092 -11.1073 -11.1073 -11.1072 -11.1071 -11.1068 -11.0994 -11.0949
   -11.0944 -11.0939 -11.0934 -11.0929 -11.0928 -11.0812 -11.0811 -11.0676
   -11.0614 -11.0593 -11.0550 -11.0549 -11.0539 -11.0535 -11.0429 -10.9927
   -10.9777 -10.9725 -10.9514 -10.9360 -10.9160 -10.8989 -10.8961  -3.4054
    -3.3276  -3.2276  -3.1259  -3.1182  -3.0647  -3.0581  -3.0460  -3.0077

          k = 0.5000 0.3500 0.0000 ( 77082 PWs)   bands (ev):

   -17.2828 -17.2629 -17.2344 -17.2326 -17.2153 -17.1951 -17.1826 -17.1785
   -17.1655 -17.1539 -17.1517 -17.1515 -17.1476 -17.1387 -17.1373 -17.1362
   -17.1310 -17.1206 -17.1174 -17.1172 -17.1159 -17.0986 -17.0218 -16.1249
   -16.1242 -16.1230 -16.1157 -16.0619 -16.0612 -16.0593 -16.0531 -11.1266
   -11.1253 -11.1102 -11.1102 -11.1097 -11.1097 -11.1093 -11.1092 -11.1092
   -11.1091 -11.1077 -11.1073 -11.1072 -11.1072 -11.1071 -11.1007 -11.0950
   -11.0944 -11.0939 -11.0934 -11.0929 -11.0928 -11.0813 -11.0812 -11.0577
   -11.0559 -11.0549 -11.0546 -11.0539 -11.0508 -11.0506 -11.0379 -10.9982
   -10.9884 -10.9807 -10.9558 -10.9344 -10.9187 -10.9061 -10.9005  -3.3780
    -3.3001  -3.2381  -3.1385  -3.1035  -3.0510  -3.0464  -3.0382  -3.0010

          k = 0.5000 0.4000 0.0000 ( 77070 PWs)   bands (ev):

   -17.2818 -17.2595 -17.2351 -17.2322 -17.2177 -17.1935 -17.1785 -17.1779
   -17.1643 -17.1573 -17.1537 -17.1519 -17.1460 -17.1395 -17.1386 -17.1361
   -17.1345 -17.1206 -17.1174 -17.1172 -17.1159 -17.0984 -17.0217 -16.1248
   -16.1242 -16.1226 -16.1161 -16.0618 -16.0613 -16.0585 -16.0539 -11.1218
   -11.1198 -11.1101 -11.1101 -11.1098 -11.1097 -11.1093 -11.1092 -11.1092
   -11.1091 -11.1089 -11.1073 -11.1072 -11.1072 -11.1071 -11.1023 -11.0950
   -11.0944 -11.0940 -11.0934 -11.0930 -11.0929 -11.0813 -11.0812 -11.0556
   -11.0549 -11.0549 -11.0539 -11.0459 -11.0430 -11.0411 -11.0324 -11.0051
   -10.9998 -10.9896 -10.9606 -10.9321 -10.9211 -10.9129 -10.9034  -3.3495
    -3.2721  -3.2527  -3.1539  -3.0865  -3.0349  -3.0343  -3.0328  -3.0071

          k = 0.5000 0.4500 0.0000 ( 77108 PWs)   bands (ev):

   -17.2811 -17.2568 -17.2373 -17.2303 -17.2199 -17.1924 -17.1785 -17.1727
   -17.1630 -17.1622 -17.1558 -17.1513 -17.1437 -17.1410 -17.1386 -17.1378
   -17.1361 -17.1205 -17.1175 -17.1172 -17.1160 -17.0983 -17.0216 -16.1248
   -16.1242 -16.1223 -16.1164 -16.0617 -16.0614 -16.0579 -16.0545 -11.1180
   -11.1156 -11.1104 -11.1100 -11.1099 -11.1098 -11.1097 -11.1093 -11.1092
   -11.1092 -11.1090 -11.1073 -11.1072 -11.1072 -11.1072 -11.1041 -11.0951
   -11.0944 -11.0941 -11.0934 -11.0930 -11.0929 -11.0813 -11.0812 -11.0556
   -11.0549 -11.0546 -11.0539 -11.0353 -11.0329 -11.0326 -11.0276 -11.0137
   -11.0114 -10.9978 -10.9647 -10.9291 -10.9228 -10.9187 -10.9050  -3.3215
    -3.2715  -3.2470  -3.1705  -3.0678  -3.0297  -3.0286  -3.0257  -3.0111

          k = 0.5000 0.5000 0.0000 ( 77148 PWs)   bands (ev):

   -17.2809 -17.2557 -17.2382 -17.2293 -17.2209 -17.1920 -17.1785 -17.1675
   -17.1675 -17.1622 -17.1568 -17.1510 -17.1416 -17.1416 -17.1402 -17.1385
   -17.1361 -17.1205 -17.1175 -17.1173 -17.1160 -17.0983 -17.0216 -16.1248
   -16.1242 -16.1222 -16.1165 -16.0617 -16.0614 -16.0576 -16.0548 -11.1163
   -11.1137 -11.1113 -11.1099 -11.1099 -11.1098 -11.1098 -11.1093 -11.1092
   -11.1091 -11.1089 -11.1073 -11.1073 -11.1072 -11.1072 -11.1050 -11.0951
   -11.0944 -11.0941 -11.0934 -11.0930 -11.0929 -11.0813 -11.0813 -11.0556
   -11.0549 -11.0546 -11.0539 -11.0286 -11.0258 -11.0257 -11.0229 -11.0227
   -11.0217 -11.0018 -10.9664 -10.9268 -10.9235 -10.9221 -10.9055  -3.2992
    -3.2906  -3.2346  -3.1799  -3.0505  -3.0452  -3.0288  -3.0218  -2.9990

          k = 0.4500 0.4500 0.0000 ( 77112 PWs)   bands (ev):

   -17.2819 -17.2561 -17.2391 -17.2288 -17.2200 -17.1923 -17.1789 -17.1725
   -17.1630 -17.1621 -17.1558 -17.1512 -17.1437 -17.1410 -17.1387 -17.1378
   -17.1360 -17.1203 -17.1176 -17.1171 -17.1158 -17.0982 -17.0216 -16.1248
   -16.1242 -16.1223 -16.1164 -16.0617 -16.0614 -16.0579 -16.0545 -11.1202
   -11.1144 -11.1115 -11.1103 -11.1098 -11.1098 -11.1096 -11.1095 -11.1094
   -11.1090 -11.1086 -11.1077 -11.1077 -11.1068 -11.1066 -11.1033 -11.0952
   -11.0946 -11.0939 -11.0932 -11.0930 -11.0929 -11.0813 -11.0812 -11.0557
   -11.0549 -11.0548 -11.0538 -11.0446 -11.0393 -11.0261 -11.0240 -11.0162
   -11.0089 -10.9923 -10.9645 -10.9306 -10.9211 -10.9183 -10.9045  -3.3307
    -3.2789  -3.2345  -3.1715  -3.0679  -3.0361  -3.0283  -3.0258  -3.0140

          k = 0.4000 0.4000 0.0000 ( 77034 PWs)   bands (ev):

   -17.2850 -17.2572 -17.2403 -17.2290 -17.2169 -17.1931 -17.1801 -17.1768
   -17.1643 -17.1569 -17.1538 -17.1515 -17.1460 -17.1393 -17.1391 -17.1357
   -17.1344 -17.1198 -17.1179 -17.1167 -17.1154 -17.0980 -17.0217 -16.1248
   -16.1242 -16.1226 -16.1162 -16.0618 -16.0613 -16.0585 -16.0538 -11.1262
   -11.1182 -11.1143 -11.1107 -11.1101 -11.1100 -11.1099 -11.1094 -11.1093
   -11.1086 -11.1082 -11.1082 -11.1081 -11.1063 -11.1062 -11.0992 -11.0953
   -11.0950 -11.0936 -11.0930 -11.0929 -11.0928 -11.0813 -11.0812 -11.0647
   -11.0588 -11.0555 -11.0551 -11.0537 -11.0516 -11.0276 -11.0268 -11.0128
   -10.9978 -10.9734 -10.9590 -10.9347 -10.9161 -10.9122 -10.9018  -3.3856
    -3.2695  -3.2297  -3.1584  -3.0854  -3.0484  -3.0398  -3.0354  -3.0172

          k = 0.3500 0.3500 0.0000 ( 77092 PWs)   bands (ev):

   -17.2897 -17.2583 -17.2411 -17.2308 -17.2126 -17.1943 -17.1829 -17.1793
   -17.1657 -17.1534 -17.1516 -17.1508 -17.1477 -17.1396 -17.1367 -17.1353
   -17.1309 -17.1191 -17.1182 -17.1161 -17.1150 -17.0976 -17.0218 -16.1249
   -16.1242 -16.1231 -16.1159 -16.0619 -16.0612 -16.0592 -16.0530 -11.1323
   -11.1239 -11.1193 -11.1112 -11.1106 -11.1102 -11.1100 -11.1093 -11.1093
   -11.1086 -11.1086 -11.1082 -11.1079 -11.1058 -11.1057 -11.0966 -11.0955
   -11.0944 -11.0931 -11.0929 -11.0928 -11.0924 -11.0838 -11.0813 -11.0812
   -11.0722 -11.0557 -11.0553 -11.0534 -11.0532 -11.0336 -11.0286 -11.0085
   -10.9901 -10.9548 -10.9517 -10.9352 -10.9094 -10.9060 -10.8976  -3.4481
    -3.2592  -3.2198  -3.1493  -3.0991  -3.0628  -3.0555  -3.0473  -3.0245

          k = 0.3000 0.3000 0.0000 ( 77125 PWs)   bands (ev):

   -17.2953 -17.2590 -17.2415 -17.2334 -17.2083 -17.1955 -17.1862 -17.1808
   -17.1669 -17.1534 -17.1509 -17.1481 -17.1468 -17.1402 -17.1349 -17.1335
   -17.1272 -17.1185 -17.1182 -17.1153 -17.1145 -17.0971 -17.0219 -16.1249
   -16.1242 -16.1235 -16.1156 -16.0620 -16.0610 -16.0599 -16.0521 -11.1383
   -11.1305 -11.1257 -11.1116 -11.1112 -11.1105 -11.1101 -11.1093 -11.1093
   -11.1090 -11.1090 -11.1078 -11.1078 -11.1054 -11.1053 -11.1034 -11.0965
   -11.0959 -11.0929 -11.0928 -11.0921 -11.0920 -11.0918 -11.0833 -11.0812
   -11.0811 -11.0559 -11.0555 -11.0532 -11.0532 -11.0410 -11.0307 -11.0038
   -10.9844 -10.9523 -10.9343 -10.9286 -10.9024 -10.8993 -10.8926  -3.5094
    -3.2468  -3.2063  -3.1453  -3.1077  -3.0763  -3.0669  -3.0594  -3.0332

          k = 0.2500 0.2500 0.0000 ( 77061 PWs)   bands (ev):

   -17.3010 -17.2595 -17.2418 -17.2362 -17.2047 -17.1966 -17.1892 -17.1821
   -17.1680 -17.1539 -17.1518 -17.1466 -17.1432 -17.1408 -17.1345 -17.1300
   -17.1236 -17.1186 -17.1174 -17.1143 -17.1141 -17.0965 -17.0221 -16.1250
   -16.1242 -16.1240 -16.1154 -16.0621 -16.0609 -16.0605 -16.0513 -11.1439
   -11.1371 -11.1329 -11.1197 -11.1119 -11.1116 -11.1107 -11.1102 -11.1095
   -11.1094 -11.1093 -11.1091 -11.1075 -11.1071 -11.1051 -11.1050 -11.1000
   -11.0966 -11.0962 -11.0928 -11.0927 -11.0919 -11.0916 -11.0834 -11.0811
   -11.0811 -11.0562 -11.0557 -11.0531 -11.0530 -11.0484 -11.0333 -10.9992
   -10.9796 -10.9543 -10.9190 -10.9172 -10.8958 -10.8921 -10.8873  -3.5650
    -3.2328  -3.1913  -3.1446  -3.1113  -3.0880  -3.0752  -3.0708  -3.0397

          k = 0.2000 0.2000 0.0000 ( 77117 PWs)   bands (ev):

   -17.3064 -17.2598 -17.2422 -17.2388 -17.2020 -17.1975 -17.1917 -17.1833
   -17.1688 -17.1543 -17.1527 -17.1452 -17.1414 -17.1399 -17.1342 -17.1266
   -17.1203 -17.1186 -17.1168 -17.1138 -17.1132 -17.0959 -17.0222 -16.1250
   -16.1244 -16.1243 -16.1152 -16.0621 -16.0611 -16.0608 -16.0505 -11.1490
   -11.1433 -11.1401 -11.1333 -11.1123 -11.1121 -11.1109 -11.1103 -11.1098
   -11.1097 -11.1093 -11.1092 -11.1090 -11.1072 -11.1069 -11.1047 -11.1046
   -11.0968 -11.0966 -11.0927 -11.0926 -11.0915 -11.0913 -11.0811 -11.0811
   -11.0810 -11.0569 -11.0559 -11.0543 -11.0529 -11.0529 -11.0360 -10.9952
   -10.9754 -10.9566 -10.9102 -10.9027 -10.8894 -10.8854 -10.8822  -3.6125
    -3.2185  -3.1763  -3.1433  -3.1118  -3.0972  -3.0817  -3.0811  -3.0526

          k = 0.1500 0.1500 0.0000 ( 77137 PWs)   bands (ev):

   -17.3108 -17.2600 -17.2428 -17.2407 -17.2002 -17.1982 -17.1934 -17.1843
   -17.1695 -17.1546 -17.1535 -17.1441 -17.1420 -17.1372 -17.1339 -17.1237
   -17.1186 -17.1176 -17.1162 -17.1135 -17.1122 -17.0952 -17.0223 -16.1251
   -16.1247 -16.1243 -16.1150 -16.0622 -16.0616 -16.0606 -16.0498 -11.1534
   -11.1485 -11.1466 -11.1440 -11.1163 -11.1125 -11.1124 -11.1111 -11.1103
   -11.1100 -11.1100 -11.1093 -11.1090 -11.1069 -11.1068 -11.1045 -11.1044
   -11.0970 -11.0968 -11.0927 -11.0925 -11.0912 -11.0911 -11.0810 -11.0810
   -11.0797 -11.0602 -11.0561 -11.0559 -11.0528 -11.0527 -11.0385 -10.9918
   -10.9722 -10.9583 -10.9037 -10.8911 -10.8833 -10.8796 -10.8778  -3.6505
    -3.2060  -3.1625  -3.1381  -3.1116  -3.1037  -3.0897  -3.0874  -3.0641

          k = 0.1000 0.1000 0.0000 ( 77179 PWs)   bands (ev):

   -17.3142 -17.2603 -17.2438 -17.2415 -17.1993 -17.1988 -17.1944 -17.1851
   -17.1700 -17.1548 -17.1541 -17.1434 -17.1424 -17.1352 -17.1337 -17.1212
   -17.1186 -17.1167 -17.1149 -17.1133 -17.1113 -17.0947 -17.0224 -16.1251
   -16.1250 -16.1244 -16.1150 -16.0622 -16.0619 -16.0605 -16.0493 -11.1572
   -11.1528 -11.1524 -11.1504 -11.1213 -11.1127 -11.1127 -11.1113 -11.1104
   -11.1102 -11.1102 -11.1094 -11.1090 -11.1067 -11.1067 -11.1043 -11.1043
   -11.0971 -11.0970 -11.0927 -11.0925 -11.0909 -11.0909 -11.0810 -11.0809
   -11.0794 -11.0627 -11.0562 -11.0561 -11.0526 -11.0526 -11.0405 -10.9893
   -10.9704 -10.9591 -10.8994 -10.8829 -10.8780 -10.8753 -10.8741  -3.6781
    -3.1971  -3.1498  -3.1296  -3.1120  -3.1066  -3.0964  -3.0932  -3.0726

          k = 0.0500 0.0500 0.0000 ( 77145 PWs)   bands (ev):

   -17.3163 -17.2605 -17.2445 -17.2418 -17.1991 -17.1990 -17.1947 -17.1855
   -17.1703 -17.1549 -17.1544 -17.1429 -17.1427 -17.1339 -17.1336 -17.1194
   -17.1185 -17.1169 -17.1136 -17.1132 -17.1107 -17.0943 -17.0225 -16.1252
   -16.1252 -16.1244 -16.1149 -16.0622 -16.0621 -16.0604 -16.0490 -11.1601
   -11.1571 -11.1549 -11.1534 -11.1243 -11.1129 -11.1129 -11.1113 -11.1104
   -11.1103 -11.1103 -11.1094 -11.1090 -11.1066 -11.1066 -11.1042 -11.1042
   -11.0971 -11.0971 -11.0926 -11.0924 -11.0908 -11.0907 -11.0809 -11.0809
   -11.0799 -11.0638 -11.0562 -11.0562 -11.0526 -11.0526 -11.0418 -10.9876
   -10.9698 -10.9592 -10.8970 -10.8785 -10.8742 -10.8727 -10.8715  -3.6949
    -3.1921  -3.1384  -3.1219  -3.1133  -3.1048  -3.1006  -3.0990  -3.0778

          k = 0.0000 0.0000 0.0000 ( 77053 PWs)   bands (ev):

   -17.3170 -17.2605 -17.2448 -17.2419 -17.1992 -17.1990 -17.1948 -17.1857
   -17.1704 -17.1550 -17.1546 -17.1428 -17.1428 -17.1335 -17.1335 -17.1185
   -17.1185 -17.1173 -17.1132 -17.1132 -17.1105 -17.0941 -17.0225 -16.1252
   -16.1252 -16.1244 -16.1149 -16.0622 -16.0622 -16.0604 -16.0489 -11.1612
   -11.1585 -11.1557 -11.1543 -11.1252 -11.1129 -11.1129 -11.1114 -11.1104
   -11.1103 -11.1103 -11.1094 -11.1090 -11.1066 -11.1066 -11.1041 -11.1041
   -11.0972 -11.0972 -11.0926 -11.0924 -11.0907 -11.0907 -11.0809 -11.0809
   -11.0802 -11.0640 -11.0562 -11.0562 -11.0525 -11.0525 -11.0422 -10.9871
   -10.9697 -10.9591 -10.8963 -10.8772 -10.8728 -10.8718 -10.8705  -3.7005
    -3.1905  -3.1330  -3.1193  -3.1141  -3.1025  -3.1020  -3.1020  -3.0796

          k = 0.0500 0.0500 0.0500 ( 77119 PWs)   bands (ev):

   -17.3160 -17.2604 -17.2446 -17.2415 -17.1990 -17.1989 -17.1946 -17.1855
   -17.1702 -17.1548 -17.1544 -17.1430 -17.1428 -17.1340 -17.1338 -17.1200
   -17.1187 -17.1166 -17.1138 -17.1135 -17.1107 -17.0943 -17.0225 -16.1252
   -16.1251 -16.1244 -16.1149 -16.0621 -16.0621 -16.0605 -16.0491 -11.1595
   -11.1568 -11.1541 -11.1526 -11.1240 -11.1129 -11.1128 -11.1113 -11.1104
   -11.1103 -11.1103 -11.1094 -11.1090 -11.1066 -11.1066 -11.1042 -11.1042
   -11.0971 -11.0971 -11.0926 -11.0924 -11.0908 -11.0908 -11.0810 -11.0809
   -11.0794 -11.0633 -11.0562 -11.0562 -11.0526 -11.0526 -11.0419 -10.9873
   -10.9701 -10.9596 -10.8974 -10.8790 -10.8746 -10.8736 -10.8723  -3.6920
    -3.1919  -3.1393  -3.1222  -3.1140  -3.1075  -3.1007  -3.0951  -3.0776

          k = 0.1000 0.1000 0.1000 ( 77131 PWs)   bands (ev):

   -17.3130 -17.2600 -17.2439 -17.2402 -17.1986 -17.1985 -17.1941 -17.1851
   -17.1697 -17.1545 -17.1538 -17.1436 -17.1428 -17.1357 -17.1347 -17.1226
   -17.1193 -17.1163 -17.1152 -17.1144 -17.1113 -17.0946 -17.0223 -16.1251
   -16.1249 -16.1244 -16.1151 -16.0619 -16.0619 -16.0606 -16.0497 -11.1546
   -11.1519 -11.1491 -11.1477 -11.1202 -11.1127 -11.1126 -11.1112 -11.1103
   -11.1102 -11.1101 -11.1093 -11.1090 -11.1067 -11.1066 -11.1043 -11.1043
   -11.0971 -11.0971 -11.0927 -11.0925 -11.0909 -11.0909 -11.0810 -11.0810
   -11.0771 -11.0612 -11.0561 -11.0561 -11.0526 -11.0526 -11.0410 -10.9881
   -10.9713 -10.9613 -10.9007 -10.8844 -10.8800 -10.8789 -10.8777  -3.6665
    -3.1957  -3.1487  -3.1340  -3.1137  -3.1098  -3.0970  -3.0824  -3.0713

          k = 0.1500 0.1500 0.1500 ( 77134 PWs)   bands (ev):

   -17.3082 -17.2593 -17.2427 -17.2381 -17.1980 -17.1980 -17.1934 -17.1843
   -17.1690 -17.1539 -17.1528 -17.1448 -17.1429 -17.1384 -17.1360 -17.1260
   -17.1204 -17.1186 -17.1160 -17.1154 -17.1120 -17.0950 -17.0222 -16.1249
   -16.1245 -16.1243 -16.1154 -16.0615 -16.0615 -16.0607 -16.0505 -11.1464
   -11.1437 -11.1410 -11.1396 -11.1139 -11.1125 -11.1123 -11.1109 -11.1102
   -11.1101 -11.1099 -11.1093 -11.1090 -11.1068 -11.1067 -11.1044 -11.1044
   -11.0970 -11.0969 -11.0928 -11.0926 -11.0912 -11.0912 -11.0811 -11.0810
   -11.0733 -11.0580 -11.0560 -11.0558 -11.0528 -11.0527 -11.0395 -10.9895
   -10.9734 -10.9640 -10.9061 -10.8932 -10.8887 -10.8877 -10.8865  -3.6246
    -3.2004  -3.1547  -3.1473  -3.1126  -3.1073  -3.0910  -3.0702  -3.0589

          k = 0.2000 0.2000 0.2000 ( 77083 PWs)   bands (ev):

   -17.3020 -17.2580 -17.2411 -17.2351 -17.1975 -17.1973 -17.1925 -17.1832
   -17.1680 -17.1533 -17.1516 -17.1468 -17.1430 -17.1424 -17.1377 -17.1297
   -17.1222 -17.1218 -17.1179 -17.1154 -17.1129 -17.0955 -17.0219 -16.1247
   -16.1242 -16.1240 -16.1158 -16.0611 -16.0611 -16.0608 -16.0516 -11.1352
   -11.1327 -11.1300 -11.1285 -11.1122 -11.1119 -11.1106 -11.1100 -11.1098
   -11.1096 -11.1093 -11.1090 -11.1070 -11.1069 -11.1056 -11.1047 -11.1045
   -11.0969 -11.0967 -11.0929 -11.0928 -11.0915 -11.0915 -11.0812 -11.0811
   -11.0684 -11.0562 -11.0557 -11.0530 -11.0529 -11.0528 -11.0376 -10.9915
   -10.9764 -10.9679 -10.9132 -10.9052 -10.9006 -10.8996 -10.8984  -3.5673
    -3.2030  -3.1565  -3.1560  -3.1094  -3.1024  -3.0831  -3.0590  -3.0458

          k = 0.2500 0.2500 0.2500 ( 77094 PWs)   bands (ev):

   -17.2950 -17.2557 -17.2389 -17.2313 -17.1974 -17.1971 -17.1917 -17.1819
   -17.1667 -17.1526 -17.1503 -17.1497 -17.1476 -17.1431 -17.1395 -17.1332
   -17.1261 -17.1235 -17.1201 -17.1156 -17.1138 -17.0959 -17.0217 -16.1245
   -16.1240 -16.1235 -16.1164 -16.0609 -16.0606 -16.0606 -16.0528 -11.1214
   -11.1189 -11.1165 -11.1148 -11.1116 -11.1115 -11.1102 -11.1099 -11.1095
   -11.1092 -11.1092 -11.1091 -11.1071 -11.1070 -11.1050 -11.1049 -11.0967
   -11.0964 -11.0949 -11.0930 -11.0930 -11.0919 -11.0918 -11.0813 -11.0813
   -11.0627 -11.0559 -11.0550 -11.0531 -11.0531 -11.0473 -11.0355 -10.9944
   -10.9802 -10.9729 -10.9216 -10.9200 -10.9151 -10.9143 -10.9131  -3.4959
    -3.2009  -3.1581  -3.1543  -3.1036  -3.0954  -3.0739  -3.0474  -3.0404

          k = 0.3000 0.3000 0.3000 ( 77100 PWs)   bands (ev):

   -17.2881 -17.2521 -17.2362 -17.2266 -17.1980 -17.1979 -17.1905 -17.1804
   -17.1652 -17.1554 -17.1522 -17.1520 -17.1493 -17.1430 -17.1408 -17.1360
   -17.1300 -17.1253 -17.1224 -17.1159 -17.1147 -17.0962 -17.0214 -16.1245
   -16.1236 -16.1229 -16.1170 -16.0609 -16.0601 -16.0601 -16.0541 -11.1115
   -11.1110 -11.1099 -11.1097 -11.1093 -11.1092 -11.1091 -11.1088 -11.1081
   -11.1077 -11.1055 -11.1053 -11.1046 -11.1026 -11.1006 -11.0985 -11.0965
   -11.0953 -11.0932 -11.0931 -11.0921 -11.0918 -11.0828 -11.0814 -11.0814
   -11.0581 -11.0557 -11.0533 -11.0532 -11.0523 -11.0409 -11.0332 -10.9981
   -10.9848 -10.9794 -10.9372 -10.9331 -10.9315 -10.9302 -10.9291  -3.4133
    -3.1927  -3.1527  -3.1476  -3.0948  -3.0866  -3.0637  -3.0356  -3.0310

          k = 0.3500 0.3500 0.3500 ( 77094 PWs)   bands (ev):

   -17.2824 -17.2466 -17.2332 -17.2212 -17.2005 -17.1991 -17.1891 -17.1789
   -17.1636 -17.1635 -17.1554 -17.1516 -17.1493 -17.1423 -17.1414 -17.1382
   -17.1334 -17.1271 -17.1248 -17.1163 -17.1156 -17.0965 -17.0212 -16.1246
   -16.1231 -16.1225 -16.1178 -16.0607 -16.0597 -16.0597 -16.0553 -11.1110
   -11.1104 -11.1096 -11.1095 -11.1092 -11.1092 -11.1088 -11.1083 -11.1080
   -11.1078 -11.1058 -11.1057 -11.0964 -11.0962 -11.0939 -11.0936 -11.0934
   -11.0933 -11.0855 -11.0837 -11.0815 -11.0815 -11.0811 -11.0801 -11.0697
   -11.0566 -11.0554 -11.0533 -11.0532 -11.0458 -11.0340 -11.0311 -11.0030
   -10.9901 -10.9875 -10.9564 -10.9514 -10.9504 -10.9492 -10.9376  -3.3239
    -3.1780  -3.1395  -3.1358  -3.0837  -3.0763  -3.0531  -3.0239  -3.0192

          k = 0.4000 0.4000 0.4000 ( 77064 PWs)   bands (ev):

   -17.2784 -17.2394 -17.2302 -17.2153 -17.2045 -17.2009 -17.1877 -17.1781
   -17.1720 -17.1620 -17.1580 -17.1513 -17.1500 -17.1418 -17.1404 -17.1399
   -17.1360 -17.1287 -17.1272 -17.1166 -17.1163 -17.0967 -17.0210 -16.1246
   -16.1226 -16.1221 -16.1185 -16.0605 -16.0594 -16.0594 -16.0563 -11.1104
   -11.1099 -11.1093 -11.1093 -11.1091 -11.1091 -11.1084 -11.1083 -11.1081
   -11.1079 -11.1063 -11.1061 -11.0959 -11.0959 -11.0938 -11.0937 -11.0935
   -11.0934 -11.0816 -11.0815 -11.0661 -11.0646 -11.0625 -11.0617 -11.0576
   -11.0561 -11.0542 -11.0523 -11.0513 -11.0381 -11.0294 -11.0270 -11.0091
   -10.9977 -10.9962 -10.9769 -10.9709 -10.9706 -10.9694 -10.9440  -3.2363
    -3.1589  -3.1193  -3.1184  -3.0720  -3.0660  -3.0429  -3.0184  -3.0109

          k = 0.4500 0.4500 0.4500 ( 77151 PWs)   bands (ev):

   -17.2762 -17.2316 -17.2278 -17.2130 -17.2060 -17.2026 -17.1866 -17.1822
   -17.1755 -17.1607 -17.1596 -17.1512 -17.1509 -17.1415 -17.1410 -17.1388
   -17.1375 -17.1298 -17.1291 -17.1168 -17.1167 -17.0968 -17.0209 -16.1247
   -16.1220 -16.1219 -16.1192 -16.0602 -16.0591 -16.0591 -16.0571 -11.1099
   -11.1094 -11.1092 -11.1092 -11.1091 -11.1091 -11.1088 -11.1085 -11.1079
   -11.1074 -11.1068 -11.1065 -11.0956 -11.0955 -11.0941 -11.0941 -11.0936
   -11.0935 -11.0817 -11.0816 -11.0561 -11.0559 -11.0551 -11.0550 -11.0454
   -11.0447 -11.0406 -11.0397 -11.0391 -11.0304 -11.0283 -11.0210 -11.0167
   -11.0100 -11.0031 -10.9975 -10.9902 -10.9893 -10.9892 -10.9480  -3.1652
    -3.1401  -3.0944  -3.0941  -3.0651  -3.0600  -3.0411  -3.0348  -3.0136

          k = 0.5000 0.5000 0.5000 ( 77208 PWs)   bands (ev):

   -17.2755 -17.2268 -17.2268 -17.2160 -17.2033 -17.2033 -17.1862 -17.1862
   -17.1756 -17.1602 -17.1602 -17.1514 -17.1511 -17.1414 -17.1414 -17.1381
   -17.1381 -17.1302 -17.1300 -17.1169 -17.1169 -17.0968 -17.0208 -16.1247
   -16.1218 -16.1218 -16.1195 -16.0600 -16.0590 -16.0590 -16.0574 -11.1094
   -11.1092 -11.1091 -11.1091 -11.1091 -11.1091 -11.1090 -11.1088 -11.1074
   -11.1073 -11.1070 -11.1068 -11.0954 -11.0954 -11.0943 -11.0943 -11.0936
   -11.0935 -11.0817 -11.0816 -11.0558 -11.0558 -11.0548 -11.0548 -11.0287
   -11.0287 -11.0282 -11.0273 -11.0273 -11.0266 -11.0252 -11.0252 -11.0228
   -11.0228 -11.0107 -11.0106 -11.0008 -11.0008 -10.9987 -10.9493  -3.1383
    -3.1267  -3.0723  -3.0723  -3.0671  -3.0670  -3.0625  -3.0322  -3.0196

          k = 0.5000 0.4500 0.4500 ( 77160 PWs)   bands (ev):

   -17.2757 -17.2310 -17.2268 -17.2126 -17.2073 -17.2035 -17.1865 -17.1820
   -17.1758 -17.1606 -17.1595 -17.1512 -17.1510 -17.1415 -17.1410 -17.1388
   -17.1375 -17.1298 -17.1292 -17.1169 -17.1169 -17.0968 -17.0209 -16.1247
   -16.1220 -16.1219 -16.1192 -16.0602 -16.0591 -16.0591 -16.0571 -11.1095
   -11.1092 -11.1092 -11.1092 -11.1091 -11.1091 -11.1090 -11.1089 -11.1074
   -11.1073 -11.1070 -11.1069 -11.0954 -11.0954 -11.0943 -11.0943 -11.0936
   -11.0935 -11.0817 -11.0816 -11.0560 -11.0558 -11.0551 -11.0549 -11.0410
   -11.0408 -11.0395 -11.0330 -11.0325 -11.0319 -11.0296 -11.0268 -11.0181
   -11.0145 -11.0016 -11.0009 -10.9955 -10.9900 -10.9899 -10.9479  -3.1613
    -3.1362  -3.0942  -3.0791  -3.0685  -3.0519  -3.0509  -3.0349  -3.0139

          k = 0.5000 0.4000 0.4000 ( 77090 PWs)   bands (ev):

   -17.2765 -17.2384 -17.2267 -17.2144 -17.2077 -17.2040 -17.1874 -17.1764
   -17.1740 -17.1618 -17.1578 -17.1514 -17.1500 -17.1418 -17.1404 -17.1400
   -17.1360 -17.1287 -17.1272 -17.1171 -17.1168 -17.0970 -17.0210 -16.1246
   -16.1226 -16.1221 -16.1185 -16.0605 -16.0594 -16.0594 -16.0563 -11.1095
   -11.1094 -11.1093 -11.1093 -11.1091 -11.1091 -11.1090 -11.1089 -11.1074
   -11.1073 -11.1071 -11.1069 -11.0954 -11.0953 -11.0943 -11.0942 -11.0935
   -11.0934 -11.0816 -11.0815 -11.0625 -11.0622 -11.0561 -11.0559 -11.0545
   -11.0537 -11.0506 -11.0433 -11.0409 -11.0399 -11.0399 -11.0298 -11.0112
   -11.0025 -10.9901 -10.9888 -10.9887 -10.9704 -10.9704 -10.9439  -3.2102
    -3.1493  -3.1375  -3.0925  -3.0727  -3.0474  -3.0429  -3.0228  -3.0027

          k = 0.5000 0.3500 0.3500 ( 77036 PWs)   bands (ev):

   -17.2778 -17.2463 -17.2266 -17.2214 -17.2047 -17.2039 -17.1887 -17.1771
   -17.1656 -17.1632 -17.1551 -17.1518 -17.1491 -17.1419 -17.1418 -17.1384
   -17.1336 -17.1273 -17.1249 -17.1173 -17.1166 -17.0973 -17.0211 -16.1245
   -16.1231 -16.1224 -16.1177 -16.0607 -16.0597 -16.0597 -16.0553 -11.1096
   -11.1096 -11.1096 -11.1094 -11.1091 -11.1091 -11.1091 -11.1090 -11.1074
   -11.1073 -11.1071 -11.1069 -11.0955 -11.0952 -11.0945 -11.0942 -11.0934
   -11.0933 -11.0816 -11.0815 -11.0811 -11.0810 -11.0645 -11.0569 -11.0563
   -11.0554 -11.0540 -11.0530 -11.0513 -11.0491 -11.0466 -11.0337 -11.0047
   -10.9911 -10.9815 -10.9789 -10.9774 -10.9504 -10.9504 -10.9382  -3.2644
    -3.1885  -3.1643  -3.1061  -3.0786  -3.0531  -3.0490  -3.0038  -2.9946

          k = 0.5000 0.3000 0.3000 ( 77058 PWs)   bands (ev):

   -17.2796 -17.2539 -17.2275 -17.2265 -17.2056 -17.2015 -17.1902 -17.1777
   -17.1646 -17.1577 -17.1526 -17.1519 -17.1491 -17.1425 -17.1414 -17.1364
   -17.1305 -17.1257 -17.1227 -17.1175 -17.1165 -17.0977 -17.0214 -16.1245
   -16.1236 -16.1229 -16.1168 -16.0609 -16.0602 -16.0602 -16.0543 -11.1098
   -11.1098 -11.1098 -11.1096 -11.1092 -11.1091 -11.1091 -11.1091 -11.1074
   -11.1073 -11.1071 -11.1070 -11.1003 -11.1002 -11.0951 -11.0941 -11.0941
   -11.0932 -11.0931 -11.0931 -11.0815 -11.0814 -11.0750 -11.0661 -11.0640
   -11.0606 -11.0550 -11.0547 -11.0545 -11.0537 -11.0522 -11.0382 -10.9988
   -10.9807 -10.9747 -10.9685 -10.9669 -10.9315 -10.9314 -10.9314  -3.3183
    -3.2409  -3.1789  -3.1182  -3.0852  -3.0633  -3.0533  -3.0134  -3.0018

          k = 0.5000 0.2500 0.2500 ( 77148 PWs)   bands (ev):

   -17.2818 -17.2609 -17.2325 -17.2264 -17.2066 -17.2004 -17.1918 -17.1781
   -17.1659 -17.1536 -17.1507 -17.1499 -17.1485 -17.1421 -17.1405 -17.1341
   -17.1271 -17.1242 -17.1206 -17.1177 -17.1164 -17.0982 -17.0216 -16.1244
   -16.1240 -16.1234 -16.1160 -16.0610 -16.0607 -16.0607 -16.0532 -11.1164
   -11.1164 -11.1101 -11.1101 -11.1094 -11.1094 -11.1093 -11.1092 -11.1091
   -11.1091 -11.1073 -11.1072 -11.1071 -11.1070 -11.0950 -11.0947 -11.0942
   -11.0936 -11.0930 -11.0930 -11.0846 -11.0813 -11.0812 -11.0757 -11.0736
   -11.0690 -11.0592 -11.0551 -11.0548 -11.0539 -11.0537 -11.0427 -10.9935
   -10.9714 -10.9688 -10.9592 -10.9574 -10.9248 -10.9143 -10.9143  -3.3680
    -3.2904  -3.1918  -3.1282  -3.0914  -3.0729  -3.0587  -3.0331  -3.0077

          k = 0.5000 0.2000 0.2000 ( 77064 PWs)   bands (ev):

   -17.2842 -17.2669 -17.2363 -17.2264 -17.2075 -17.2001 -17.1933 -17.1784
   -17.1669 -17.1546 -17.1512 -17.1454 -17.1451 -17.1412 -17.1395 -17.1316
   -17.1235 -17.1228 -17.1188 -17.1178 -17.1164 -17.0987 -17.0219 -16.1245
   -16.1241 -16.1239 -16.1152 -16.0612 -16.0612 -16.0609 -16.0522 -11.1299
   -11.1299 -11.1104 -11.1103 -11.1096 -11.1095 -11.1095 -11.1094 -11.1091
   -11.1091 -11.1073 -11.1073 -11.1072 -11.1071 -11.0950 -11.0949 -11.0947
   -11.0936 -11.0929 -11.0928 -11.0919 -11.0840 -11.0820 -11.0812 -11.0811
   -11.0768 -11.0639 -11.0552 -11.0549 -11.0539 -11.0539 -11.0467 -10.9890
   -10.9639 -10.9635 -10.9512 -10.9494 -10.9186 -10.8996 -10.8996  -3.4112
    -3.3337  -3.2024  -3.1362  -3.0968  -3.0811  -3.0639  -3.0537  -3.0119

          k = 0.5000 0.1500 0.1500 ( 77054 PWs)   bands (ev):

   -17.2865 -17.2718 -17.2390 -17.2263 -17.2084 -17.2003 -17.1945 -17.1786
   -17.1677 -17.1556 -17.1523 -17.1428 -17.1411 -17.1404 -17.1384 -17.1291
   -17.1216 -17.1203 -17.1177 -17.1174 -17.1165 -17.0993 -17.0221 -16.1247
   -16.1243 -16.1241 -16.1146 -16.0617 -16.0617 -16.0609 -16.0513 -11.1410
   -11.1410 -11.1106 -11.1106 -11.1097 -11.1096 -11.1096 -11.1095 -11.1091
   -11.1091 -11.1074 -11.1073 -11.1072 -11.1071 -11.1002 -11.0948 -11.0947
   -11.0936 -11.0934 -11.0927 -11.0927 -11.0907 -11.0888 -11.0832 -11.0811
   -11.0810 -11.0679 -11.0552 -11.0549 -11.0539 -11.0539 -11.0502 -10.9854
   -10.9600 -10.9572 -10.9448 -10.9430 -10.9134 -10.8877 -10.8877  -3.4461
    -3.3690  -3.2104  -3.1421  -3.1009  -3.0879  -3.0716  -3.0683  -3.0189

          k = 0.5000 0.1000 0.1000 ( 77102 PWs)   bands (ev):

   -17.2884 -17.2754 -17.2408 -17.2263 -17.2090 -17.2006 -17.1955 -17.1788
   -17.1682 -17.1563 -17.1532 -17.1408 -17.1397 -17.1385 -17.1375 -17.1271
   -17.1206 -17.1177 -17.1174 -17.1167 -17.1163 -17.0998 -17.0223 -16.1249
   -16.1247 -16.1241 -16.1141 -16.0620 -16.0620 -16.0608 -16.0506 -11.1491
   -11.1491 -11.1108 -11.1107 -11.1097 -11.1097 -11.1096 -11.1096 -11.1092
   -11.1091 -11.1074 -11.1073 -11.1072 -11.1071 -11.1050 -11.0960 -11.0946
   -11.0944 -11.0941 -11.0934 -11.0933 -11.0926 -11.0926 -11.0880 -11.0810
   -11.0809 -11.0708 -11.0552 -11.0549 -11.0539 -11.0539 -11.0528 -10.9828
   -10.9572 -10.9525 -10.9402 -10.9383 -10.9095 -10.8789 -10.8789  -3.4717
    -3.3949  -3.2160  -3.1462  -3.1039  -3.0928  -3.0854  -3.0716  -3.0241

          k = 0.5000 0.0500 0.0500 ( 77062 PWs)   bands (ev):

   -17.2896 -17.2776 -17.2418 -17.2263 -17.2094 -17.2008 -17.1961 -17.1789
   -17.1685 -17.1567 -17.1538 -17.1395 -17.1393 -17.1371 -17.1369 -17.1259
   -17.1200 -17.1171 -17.1168 -17.1160 -17.1156 -17.1001 -17.0224 -16.1249
   -16.1249 -16.1241 -16.1138 -16.0623 -16.0623 -16.0608 -16.0502 -11.1540
   -11.1540 -11.1109 -11.1108 -11.1098 -11.1098 -11.1096 -11.1096 -11.1092
   -11.1092 -11.1081 -11.1073 -11.1073 -11.1072 -11.1072 -11.0989 -11.0970
   -11.0945 -11.0945 -11.0934 -11.0934 -11.0926 -11.0925 -11.0910 -11.0810
   -11.0809 -11.0725 -11.0552 -11.0549 -11.0544 -11.0539 -11.0539 -10.9812
   -10.9555 -10.9497 -10.9373 -10.9354 -10.9070 -10.8736 -10.8736  -3.4873
    -3.4108  -3.2192  -3.1486  -3.1057  -3.0958  -3.0939  -3.0736  -3.0272

          k = 0.5000 0.0000 0.0000 ( 76940 PWs)   bands (ev):

   -17.2900 -17.2783 -17.2421 -17.2263 -17.2096 -17.2009 -17.1964 -17.1789
   -17.1687 -17.1569 -17.1540 -17.1391 -17.1391 -17.1366 -17.1366 -17.1255
   -17.1197 -17.1169 -17.1169 -17.1154 -17.1154 -17.1002 -17.0225 -16.1250
   -16.1250 -16.1241 -16.1137 -16.0624 -16.0624 -16.0608 -16.0501 -11.1557
   -11.1557 -11.1109 -11.1109 -11.1098 -11.1098 -11.1097 -11.1097 -11.1092
   -11.1092 -11.1091 -11.1073 -11.1073 -11.1072 -11.1072 -11.0999 -11.0980
   -11.0944 -11.0944 -11.0934 -11.0934 -11.0925 -11.0925 -11.0921 -11.0810
   -11.0809 -11.0731 -11.0553 -11.0549 -11.0549 -11.0539 -11.0539 -10.9807
   -10.9549 -10.9488 -10.9364 -10.9345 -10.9062 -10.8718 -10.8718  -3.4925
    -3.4161  -3.2203  -3.1493  -3.1062  -3.0969  -3.0968  -3.0743  -3.0283

     Writing all to output data dir ../../tmp/cspbf3_VF.save/

     init_run     :     20.41s CPU     21.56s WALL (       1 calls)
     electrons    :  34417.46s CPU  34604.34s WALL (       1 calls)

     Called by init_run:
     wfcinit      :      0.00s CPU      0.02s WALL (       1 calls)
     potinit      :      4.02s CPU      4.23s WALL (       1 calls)
     hinit0       :      0.91s CPU      0.94s WALL (       1 calls)

     Called by electrons:
     c_bands      :  34417.46s CPU  34604.30s WALL (       1 calls)
     v_of_rho     :      0.82s CPU      0.88s WALL (       1 calls)
     newd         :     14.62s CPU     15.48s WALL (       1 calls)
     PAW_pot      :      3.07s CPU      3.08s WALL (       1 calls)

     Called by c_bands:
     init_us_2    :      1.69s CPU      1.74s WALL (      51 calls)
     init_us_2:cp :      1.69s CPU      1.74s WALL (      51 calls)
     ccgdiagg     :  31304.57s CPU  31470.95s WALL (     306 calls)
     wfcrot       :   3095.99s CPU   3114.24s WALL (     306 calls)

     Called by *cgdiagg:
     h_psi        :  15284.88s CPU  15413.38s WALL (  219646 calls)
     s_psi        :  10608.83s CPU  10638.38s WALL (  438986 calls)

     Called by h_psi:
     h_psi:calbec :   6739.20s CPU   6760.22s WALL (  219646 calls)
     vloc_psi     :   2873.45s CPU   2964.54s WALL (  219646 calls)
     add_vuspsi   :   5658.98s CPU   5674.58s WALL (  219646 calls)
     hs_1psi      :  18350.08s CPU  18477.25s WALL (  219340 calls)
     s_1psi       :  10817.64s CPU  10848.41s WALL (  219340 calls)

     General routines
     calbec       :  12588.24s CPU  12627.20s WALL (  438986 calls)
     fft          :      0.62s CPU      0.66s WALL (      13 calls)
     ffts         :      0.01s CPU      0.01s WALL (       1 calls)
     fftw         :   2375.19s CPU   2462.84s WALL (  500288 calls)
     interpolate  :      0.06s CPU      0.07s WALL (       1 calls)
     davcio       :      0.02s CPU      1.98s WALL (     102 calls)

     Parallel routines

     PWSCF        :      9h33m CPU      9h37m WALL


   This run was terminated on:   1:22:44   5Jul2026            

=------------------------------------------------------------------------------=
   JOB DONE.
=------------------------------------------------------------------------------=
