
     Program PWSCF v.7.2 starts on 18Jun2026 at  2:55: 8 

     This program is part of the open-source Quantum ESPRESSO suite
     for quantum simulation of materials; please cite
         "P. Giannozzi et al., J. Phys.:Condens. Matter 21 395502 (2009);
         "P. Giannozzi et al., J. Phys.:Condens. Matter 29 465901 (2017);
         "P. Giannozzi et al., J. Chem. Phys. 152 154105 (2020);
          URL http://www.quantum-espresso.org", 
     in publications or presentations arising from this work. More details at
     http://www.quantum-espresso.org/quote

     Parallel version (MPI), running on     4 processors

     MPI processes distributed on     1 nodes
     144132 MiB available memory on the printing compute node when the environment starts

     Waiting for input...
     Reading input from standard input

     Current dimensions of program PWSCF are:
     Max number of different atomic species (ntypx) = 10
     Max number of k-points (npk) =  40000
     Max angular momentum in pseudopotentials (lmaxx) =  4

     Atomic positions and unit cell read from directory:
     ../../tmp/cspbf3.save/

     file Cs.pbe-spn-kjpaw_psl.1.0.0.UPF: wavefunction(s)  5S 6S renormalized
     file Pb.pbe-dn-kjpaw_psl.1.0.0.UPF: wavefunction(s)  6S 6P 5D renormalized
     file F.pbe-n-kjpaw_psl.1.0.0.UPF: wavefunction(s)  2S 2P renormalized

     R & G space division:  proc/nbgrp/npool/nimage =       4
     Subspace diagonalization in iterative solution of the eigenvalue problem:
     a serial algorithm will be used


     Parallelization info
     --------------------
     sticks:   dense  smooth     PW     G-vecs:    dense   smooth      PW
     Min        1093     546    154                54413    19238    2908
     Max        1094     547    156                54418    19243    2909
     Sum        4373    2185    621               217663    76957   11633

     Using Slab Decomposition



     bravais-lattice index     =            1
     lattice parameter (alat)  =       9.2729  a.u.
     unit-cell volume          =     797.3536 (a.u.)^3
     number of atoms/cell      =            5
     number of atomic types    =            3
     number of electrons       =        44.00
     number of Kohn-Sham states=           40
     kinetic-energy cutoff     =      80.0000  Ry
     charge density cutoff     =     640.0000  Ry
     Exchange-correlation= SLA  PW   PBX  PBC
                           (   1   4   3   4   0   0   0)

     celldm(1)=   9.272930  celldm(2)=   0.000000  celldm(3)=   0.000000
     celldm(4)=   0.000000  celldm(5)=   0.000000  celldm(6)=   0.000000

     crystal axes: (cart. coord. in units of alat)
               a(1) = (   1.000000   0.000000   0.000000 )  
               a(2) = (   0.000000   1.000000   0.000000 )  
               a(3) = (   0.000000   0.000000   1.000000 )  

     reciprocal axes: (cart. coord. in units 2 pi/alat)
               b(1) = (  1.000000  0.000000  0.000000 )  
               b(2) = (  0.000000  1.000000  0.000000 )  
               b(3) = (  0.000000  0.000000  1.000000 )  


     PseudoPot. # 1 for Cs read from file:
     ../../pseudo/Cs.pbe-spn-kjpaw_psl.1.0.0.UPF
     MD5 check sum: b82c75cc2e1f4ff73b6412cffeb9c584
     Pseudo is Projector augmented-wave + core cor, Zval =  9.0
     Generated using &quot;atomic&quot; code by A. Dal Corso  v.6.4.1
     Shape of augmentation charge: PSQ
     Using radial grid of 1251 points,  9 beta functions with: 
                l(1) =   0
                l(2) =   0
                l(3) =   0
                l(4) =   1
                l(5) =   1
                l(6) =   2
                l(7) =   2
                l(8) =   3
                l(9) =   3
     Q(r) pseudized with 0 coefficients 


     PseudoPot. # 2 for Pb read from file:
     ../../pseudo/Pb.pbe-dn-kjpaw_psl.1.0.0.UPF
     MD5 check sum: 8dd1fa6bc87c0adeb4efb5a3e91ed847
     Pseudo is Projector augmented-wave + core cor, Zval = 14.0
     Generated using &quot;atomic&quot; code by A. Dal Corso  v.6.3
     Shape of augmentation charge: PSQ
     Using radial grid of 1281 points,  6 beta functions with: 
                l(1) =   0
                l(2) =   0
                l(3) =   1
                l(4) =   1
                l(5) =   2
                l(6) =   2
     Q(r) pseudized with 0 coefficients 


     PseudoPot. # 3 for F  read from file:
     ../../pseudo/F.pbe-n-kjpaw_psl.1.0.0.UPF
     MD5 check sum: 66d718ea72839a4268ab2a9540e8cdd4
     Pseudo is Projector augmented-wave + core cor, Zval =  7.0
     Generated using &quot;atomic&quot; code by A. Dal Corso  v.6.3
     Shape of augmentation charge: PSQ
     Using radial grid of 1105 points,  4 beta functions with: 
                l(1) =   0
                l(2) =   0
                l(3) =   1
                l(4) =   1
     Q(r) pseudized with 0 coefficients 


     atomic species   valence    mass     pseudopotential
        Cs             9.00   132.91000     Cs( 1.00)
        Pb            14.00   207.20000     Pb( 1.00)
        F              7.00    18.99800     F ( 1.00)

     48 Sym. Ops., with inversion, found



   Cartesian axes

     site n.     atom                  positions (alat units)
         1           Pb  tau(   1) = (   0.0000000   0.0000000   0.0000000  )
         2           Cs  tau(   2) = (   0.5000000   0.5000000   0.5000000  )
         3           F   tau(   3) = (   0.0000000   0.5000000   0.0000000  )
         4           F   tau(   4) = (   0.5000000   0.0000000   0.0000000  )
         5           F   tau(   5) = (   0.0000000   0.0000000   0.5000000  )

     number of k points=    84
                       cart. coord. in units 2pi/alat
        k(    1) = (   0.0000000   0.0000000   0.0000000), wk =   0.0011574
        k(    2) = (   0.0000000   0.0000000   0.0833333), wk =   0.0069444
        k(    3) = (   0.0000000   0.0000000   0.1666667), wk =   0.0069444
        k(    4) = (   0.0000000   0.0000000   0.2500000), wk =   0.0069444
        k(    5) = (   0.0000000   0.0000000   0.3333333), wk =   0.0069444
        k(    6) = (   0.0000000   0.0000000   0.4166667), wk =   0.0069444
        k(    7) = (   0.0000000   0.0000000  -0.5000000), wk =   0.0034722
        k(    8) = (   0.0000000   0.0833333   0.0833333), wk =   0.0138889
        k(    9) = (   0.0000000   0.0833333   0.1666667), wk =   0.0277778
        k(   10) = (   0.0000000   0.0833333   0.2500000), wk =   0.0277778
        k(   11) = (   0.0000000   0.0833333   0.3333333), wk =   0.0277778
        k(   12) = (   0.0000000   0.0833333   0.4166667), wk =   0.0277778
        k(   13) = (   0.0000000   0.0833333  -0.5000000), wk =   0.0138889
        k(   14) = (   0.0000000   0.1666667   0.1666667), wk =   0.0138889
        k(   15) = (   0.0000000   0.1666667   0.2500000), wk =   0.0277778
        k(   16) = (   0.0000000   0.1666667   0.3333333), wk =   0.0277778
        k(   17) = (   0.0000000   0.1666667   0.4166667), wk =   0.0277778
        k(   18) = (   0.0000000   0.1666667  -0.5000000), wk =   0.0138889
        k(   19) = (   0.0000000   0.2500000   0.2500000), wk =   0.0138889
        k(   20) = (   0.0000000   0.2500000   0.3333333), wk =   0.0277778
        k(   21) = (   0.0000000   0.2500000   0.4166667), wk =   0.0277778
        k(   22) = (   0.0000000   0.2500000  -0.5000000), wk =   0.0138889
        k(   23) = (   0.0000000   0.3333333   0.3333333), wk =   0.0138889
        k(   24) = (   0.0000000   0.3333333   0.4166667), wk =   0.0277778
        k(   25) = (   0.0000000   0.3333333  -0.5000000), wk =   0.0138889
        k(   26) = (   0.0000000   0.4166667   0.4166667), wk =   0.0138889
        k(   27) = (   0.0000000   0.4166667  -0.5000000), wk =   0.0138889
        k(   28) = (   0.0000000  -0.5000000  -0.5000000), wk =   0.0034722
        k(   29) = (   0.0833333   0.0833333   0.0833333), wk =   0.0092593
        k(   30) = (   0.0833333   0.0833333   0.1666667), wk =   0.0277778
        k(   31) = (   0.0833333   0.0833333   0.2500000), wk =   0.0277778
        k(   32) = (   0.0833333   0.0833333   0.3333333), wk =   0.0277778
        k(   33) = (   0.0833333   0.0833333   0.4166667), wk =   0.0277778
        k(   34) = (   0.0833333   0.0833333  -0.5000000), wk =   0.0138889
        k(   35) = (   0.0833333   0.1666667   0.1666667), wk =   0.0277778
        k(   36) = (   0.0833333   0.1666667   0.2500000), wk =   0.0555556
        k(   37) = (   0.0833333   0.1666667   0.3333333), wk =   0.0555556
        k(   38) = (   0.0833333   0.1666667   0.4166667), wk =   0.0555556
        k(   39) = (   0.0833333   0.1666667  -0.5000000), wk =   0.0277778
        k(   40) = (   0.0833333   0.2500000   0.2500000), wk =   0.0277778
        k(   41) = (   0.0833333   0.2500000   0.3333333), wk =   0.0555556
        k(   42) = (   0.0833333   0.2500000   0.4166667), wk =   0.0555556
        k(   43) = (   0.0833333   0.2500000  -0.5000000), wk =   0.0277778
        k(   44) = (   0.0833333   0.3333333   0.3333333), wk =   0.0277778
        k(   45) = (   0.0833333   0.3333333   0.4166667), wk =   0.0555556
        k(   46) = (   0.0833333   0.3333333  -0.5000000), wk =   0.0277778
        k(   47) = (   0.0833333   0.4166667   0.4166667), wk =   0.0277778
        k(   48) = (   0.0833333   0.4166667  -0.5000000), wk =   0.0277778
        k(   49) = (   0.0833333  -0.5000000  -0.5000000), wk =   0.0069444
        k(   50) = (   0.1666667   0.1666667   0.1666667), wk =   0.0092593
        k(   51) = (   0.1666667   0.1666667   0.2500000), wk =   0.0277778
        k(   52) = (   0.1666667   0.1666667   0.3333333), wk =   0.0277778
        k(   53) = (   0.1666667   0.1666667   0.4166667), wk =   0.0277778
        k(   54) = (   0.1666667   0.1666667  -0.5000000), wk =   0.0138889
        k(   55) = (   0.1666667   0.2500000   0.2500000), wk =   0.0277778
        k(   56) = (   0.1666667   0.2500000   0.3333333), wk =   0.0555556
        k(   57) = (   0.1666667   0.2500000   0.4166667), wk =   0.0555556
        k(   58) = (   0.1666667   0.2500000  -0.5000000), wk =   0.0277778
        k(   59) = (   0.1666667   0.3333333   0.3333333), wk =   0.0277778
        k(   60) = (   0.1666667   0.3333333   0.4166667), wk =   0.0555556
        k(   61) = (   0.1666667   0.3333333  -0.5000000), wk =   0.0277778
        k(   62) = (   0.1666667   0.4166667   0.4166667), wk =   0.0277778
        k(   63) = (   0.1666667   0.4166667  -0.5000000), wk =   0.0277778
        k(   64) = (   0.1666667  -0.5000000  -0.5000000), wk =   0.0069444
        k(   65) = (   0.2500000   0.2500000   0.2500000), wk =   0.0092593
        k(   66) = (   0.2500000   0.2500000   0.3333333), wk =   0.0277778
        k(   67) = (   0.2500000   0.2500000   0.4166667), wk =   0.0277778
        k(   68) = (   0.2500000   0.2500000  -0.5000000), wk =   0.0138889
        k(   69) = (   0.2500000   0.3333333   0.3333333), wk =   0.0277778
        k(   70) = (   0.2500000   0.3333333   0.4166667), wk =   0.0555556
        k(   71) = (   0.2500000   0.3333333  -0.5000000), wk =   0.0277778
        k(   72) = (   0.2500000   0.4166667   0.4166667), wk =   0.0277778
        k(   73) = (   0.2500000   0.4166667  -0.5000000), wk =   0.0277778
        k(   74) = (   0.2500000  -0.5000000  -0.5000000), wk =   0.0069444
        k(   75) = (   0.3333333   0.3333333   0.3333333), wk =   0.0092593
        k(   76) = (   0.3333333   0.3333333   0.4166667), wk =   0.0277778
        k(   77) = (   0.3333333   0.3333333  -0.5000000), wk =   0.0138889
        k(   78) = (   0.3333333   0.4166667   0.4166667), wk =   0.0277778
        k(   79) = (   0.3333333   0.4166667  -0.5000000), wk =   0.0277778
        k(   80) = (   0.3333333  -0.5000000  -0.5000000), wk =   0.0069444
        k(   81) = (   0.4166667   0.4166667   0.4166667), wk =   0.0092593
        k(   82) = (   0.4166667   0.4166667  -0.5000000), wk =   0.0138889
        k(   83) = (   0.4166667  -0.5000000  -0.5000000), wk =   0.0069444
        k(   84) = (  -0.5000000  -0.5000000  -0.5000000), wk =   0.0011574

     Dense  grid:   217663 G-vectors     FFT dimensions: (  75,  75,  75)

     Smooth grid:    76957 G-vectors     FFT dimensions: (  54,  54,  54)

     Estimated max dynamical RAM per process >     531.30 MB

     Estimated total dynamical RAM >       2.08 GB

     The potential is recalculated from file :
     ../../tmp/cspbf3.save/charge-density

     Starting wfcs are   26 randomized atomic wfcs +   14 random wfcs
     Checking if some PAW data can be deallocated... 

     Band Structure Calculation
     Davidson diagonalization with overlap
     c_bands:  1 eigenvalues not converged

     ethr =  2.27E-11,  avg # of iterations = 87.3

     total cpu time spent up to now is      862.6 secs

     End of band structure calculation

          k = 0.0000 0.0000 0.0000 (  9771 PWs)   bands (ev):

   -17.2339 -17.0817 -17.0817 -16.0056 -11.0158 -11.0158 -11.0158 -10.7950
   -10.7950  -2.8547  -2.8547  -2.8547  -0.9834   0.1127   0.1127   0.1127
     1.6292   1.6292   1.6292   1.7223   1.7223   1.7223   9.4853   9.8667
     9.8667  11.1176  11.1176  11.1176  11.8916  11.8916  11.8916  17.3961
    17.3961  17.3961  17.9068  18.2047  18.2047  18.2047  18.3193  18.3193

          k = 0.0000 0.0000 0.0833 (  9675 PWs)   bands (ev):

   -17.2293 -17.0817 -17.0803 -16.0067 -11.0162 -11.0162 -11.0158 -10.8082
   -10.7950  -2.8656  -2.8500  -2.8500  -1.1565   0.1134   0.1134   0.3422
     1.6236   1.6260   1.6260   1.7178   1.7178   1.7324   9.4638   9.9027
     9.9164  10.9975  10.9975  11.1631  11.9082  12.0509  12.0509  17.2851
    17.3806  17.3806  17.4455  17.5950  17.5950  18.0351  18.8108  19.0194

          k = 0.0000 0.0000 0.1667 (  9635 PWs)   bands (ev):

   -17.2167 -17.0815 -17.0762 -16.0099 -11.0174 -11.0174 -11.0158 -10.8444
   -10.7950  -2.8962  -2.8369  -2.8369  -1.4583   0.1148   0.1148   0.7716
     1.6083   1.6174   1.6174   1.7055   1.7055   1.7972   9.2870  10.0037
    10.1816  10.7799  10.7799  11.2971  11.9550  12.3822  12.3822  16.8199
    16.8199  16.8832  17.0002  17.5669  17.6330  17.6330  18.4935  19.4576

          k = 0.0000 0.0000 0.2500 (  9618 PWs)   bands (ev):

   -17.1991 -17.0813 -17.0707 -16.0142 -11.0191 -11.0191 -11.0157 -10.8939
   -10.7950  -2.9403  -2.8187  -2.8187  -1.7218   0.1160   0.1160   1.0939
     1.5877   1.6070   1.6070   1.6881   1.6881   2.0308   8.9575  10.1484
    10.5787  10.5787  10.6767  11.5059  12.0231  12.7588  12.7588  16.2268
    16.2268  16.3938  16.6400  16.8335  17.4828  17.8636  17.8636  19.9140

          k = 0.0000 0.0000 0.3333 (  9606 PWs)   bands (ev):

   -17.1813 -17.0811 -17.0653 -16.0185 -11.0207 -11.0207 -11.0157 -10.9435
   -10.7950  -2.9870  -2.8003  -2.8003  -1.9099   0.1163   0.1163   1.2072
     1.5672   1.5988   1.5988   1.6691   1.6691   2.4419   8.5751  10.3021
    10.4255  10.4255  11.3255  11.7654  12.0972  13.1264  13.1264  15.7204
    15.7204  15.8255  16.0112  16.2996  16.7469  18.1495  18.1495  19.9733

          k = 0.0000 0.0000 0.4167 (  9646 PWs)   bands (ev):

   -17.1681 -17.0810 -17.0614 -16.0216 -11.0219 -11.0219 -11.0156 -10.9799
   -10.7949  -3.0227  -2.7867  -2.7867  -2.0193   0.1160   0.1160   1.2284
     1.5524   1.5952   1.5952   1.6533   1.6533   2.8145   8.2572  10.3309
    10.3309  10.4216  11.8477  12.1559  12.2024  13.4266  13.4266  14.7948
    15.3434  15.3434  15.7646  16.0570  16.2843  18.4099  18.4099  19.9877

          k = 0.0000 0.0000-0.5000 (  9626 PWs)   bands (ev):

   -17.1632 -17.0809 -17.0600 -16.0227 -11.0223 -11.0223 -11.0156 -10.9932
   -10.7949  -3.0360  -2.7817  -2.7817  -2.0549   0.1158   0.1158   1.2300
     1.5471   1.5948   1.5948   1.6468   1.6468   2.9634   8.1305  10.2989
    10.2989  10.4670  11.9645  12.1784  12.6453  13.5541  13.5541  14.2191
    15.1914  15.1914  15.6790  15.9689  16.1174  18.5215  18.5215  19.9911

          k = 0.0000 0.0833 0.0833 (  9659 PWs)   bands (ev):

   -17.2247 -17.0809 -17.0795 -16.0078 -11.0167 -11.0162 -11.0162 -10.8148
   -10.8016  -2.8620  -2.8605  -2.8453  -1.2994   0.1144   0.1907   0.4620
     1.6067   1.6226   1.6347   1.7132   1.7273   1.7338   9.4652   9.9170
     9.9527  10.9173  11.0327  11.0608  11.8868  12.2038  12.2075  16.8409
    17.0490  17.3447  17.3640  17.4561  18.0592  18.1771  18.4223  19.1718

          k = 0.0000 0.0833 0.1667 (  9637 PWs)   bands (ev):

   -17.2122 -17.0805 -17.0757 -16.0109 -11.0179 -11.0174 -11.0162 -10.8483
   -10.8042  -2.8931  -2.8492  -2.8326  -1.5709   0.1170   0.2299   0.8133
     1.5838   1.6139   1.6352   1.7005   1.7203   1.8101   9.3234  10.0041
    10.1528  10.7458  10.8447  11.1874  11.9112  12.4958  12.5377  16.2690
    16.4319  17.0630  17.4045  17.4806  17.7670  17.9253  18.4908  19.0150

          k = 0.0000 0.0833 0.2500 (  9628 PWs)   bands (ev):

   -17.1948 -17.0802 -17.0702 -16.0150 -11.0195 -11.0190 -11.0161 -10.8972
   -10.8046  -2.9390  -2.8322  -2.8149  -1.8205   0.1198   0.2412   1.0988
     1.5615   1.6032   1.6277   1.6823   1.7065   2.0626   9.0000  10.1278
    10.4563  10.5701  10.8142  11.3994  11.9756  12.8168  12.9053  15.8039
    15.8316  16.7163  16.9235  17.1377  17.5334  17.8363  17.9098  19.5241

          k = 0.0000 0.0833 0.3333 (  9641 PWs)   bands (ev):

   -17.1772 -17.0800 -17.0647 -16.0191 -11.0211 -11.0207 -11.0161 -10.9466
   -10.8047  -2.9876  -2.8142  -2.7970  -2.0031   0.1219   0.2467   1.2031
     1.5453   1.5949   1.6158   1.6626   1.6912   2.4785   8.6138  10.2197
    10.4300  10.4608  11.3411  11.6520  12.0546  13.1023  13.2385  15.2661
    15.4809  16.1874  16.3928  16.4433  16.9050  18.1078  18.1762  19.5574

          k = 0.0000 0.0833 0.4167 (  9636 PWs)   bands (ev):

   -17.1642 -17.0798 -17.0606 -16.0221 -11.0222 -11.0218 -11.0161 -10.9828
   -10.8047  -3.0249  -2.8003  -2.7837  -2.1113   0.1229   0.2494   1.2252
     1.5371   1.5913   1.6050   1.6461   1.6791   2.8501   8.2917  10.2199
    10.3417  10.4906  11.8402  12.0626  12.1209  13.2963  13.4836  14.5924
    15.3247  15.5602  16.0775  16.1577  16.4469  18.3657  18.4250  19.5832

          k = 0.0000 0.0833-0.5000 (  9652 PWs)   bands (ev):

   -17.1594 -17.0797 -17.0592 -16.0232 -11.0227 -11.0223 -11.0160 -10.9961
   -10.8047  -3.0389  -2.7950  -2.7788  -2.1468   0.1231   0.2503   1.2276
     1.5349   1.5910   1.6005   1.6391   1.6745   2.9983   8.1633  10.2053
    10.3116  10.5179  11.9411  12.1473  12.4595  13.3634  13.6459  14.0642
    15.2951  15.4126  15.9270  16.0693  16.2616  18.4742  18.5319  19.5968

          k = 0.0000 0.1667 0.1667 (  9621 PWs)   bands (ev):

   -17.1999 -17.0785 -17.0733 -16.0135 -11.0190 -11.0174 -11.0173 -10.8682
   -10.8200  -2.8857  -2.8824  -2.8207  -1.8051   0.1228   0.4108   0.9548
     1.5525   1.6047   1.6477   1.6864   1.7444   1.9051   9.3305   9.9206
    10.2619  10.6563  10.9624  11.0553  11.8739  12.7131  12.8611  15.7967
    15.8421  17.1658  17.3049  17.6296  18.1124  18.1185  18.3002  18.7151

          k = 0.0000 0.1667 0.2500 (  9620 PWs)   bands (ev):

   -17.1831 -17.0773 -17.0684 -16.0172 -11.0205 -11.0190 -11.0173 -10.9104
   -10.8267  -2.9350  -2.8696  -2.8044  -2.0353   0.1303   0.5048   1.1169
     1.5264   1.5933   1.6490   1.6665   1.7462   2.1879   9.0956   9.9174
    10.4894  10.5439  10.9540  11.2688  11.8958  12.9009  13.1784  15.3229
    15.4960  16.9140  17.2483  17.5245  17.5803  17.9498  18.0527  18.6845

          k = 0.0000 0.1667 0.3333 (  9647 PWs)   bands (ev):

   -17.1663 -17.0766 -17.0628 -16.0209 -11.0221 -11.0206 -11.0172 -10.9574
   -10.8289  -2.9890  -2.8526  -2.7878  -2.2112   0.1372   0.5453   1.1944
     1.5155   1.5842   1.6394   1.6448   1.7391   2.6014   8.7160   9.9461
    10.4420  10.5946  11.2854  11.5698  11.9616  12.9866  13.3652  14.9369
    15.4090  16.3409  16.6536  17.0854  17.2896  17.9678  18.2494  18.7472

          k = 0.0000 0.1667 0.4167 (  9644 PWs)   bands (ev):

   -17.1541 -17.0761 -17.0585 -16.0235 -11.0232 -11.0218 -11.0172 -10.9926
   -10.8296  -3.0306  -2.8373  -2.7755  -2.3193   0.1418   0.5643   1.2151
     1.5200   1.5805   1.6238   1.6263   1.7321   2.9643   8.3856   9.9474
    10.3733  10.6312  11.7135  11.9097  12.0354  12.9791  13.4537  14.4656
    15.4973  15.8474  16.4206  16.6828  16.8723  18.1205  18.4671  18.8894

          k = 0.0000 0.1667-0.5000 (  9628 PWs)   bands (ev):

   -17.1496 -17.0758 -17.0569 -16.0245 -11.0236 -11.0222 -11.0172 -11.0055
   -10.8298  -3.0462  -2.8309  -2.7710  -2.3559   0.1434   0.5702   1.2178
     1.5256   1.5804   1.6150   1.6183   1.7295   3.1095   8.2531   9.9431
    10.3492  10.6470  11.9064  12.0693  12.0693  12.9598  13.8129  13.8169
    15.5843  15.8286  16.3030  16.4979  16.6789  18.1718  18.5620  18.9791

          k = 0.0000 0.2500 0.2500 (  9661 PWs)   bands (ev):

   -17.1673 -17.0741 -17.0648 -16.0202 -11.0220 -11.0190 -11.0188 -10.9400
   -10.8456  -2.9393  -2.9113  -2.7898  -2.2558   0.1444   0.7316   1.1520
     1.4995   1.5804   1.6442   1.6604   1.7756   2.4582   9.1121   9.6221
    10.5031  10.6604  10.9904  11.4090  11.8564  12.8883  13.3247  15.0256
    15.4368  17.0616  17.1021  17.2995  17.9019  18.0075  18.1352  18.1950

          k = 0.0000 0.2500 0.3333 (  9629 PWs)   bands (ev):

   -17.1521 -17.0714 -17.0599 -16.0233 -11.0235 -11.0205 -11.0188 -10.9793
   -10.8547  -2.9910  -2.9044  -2.7751  -2.4305   0.1583   0.8572   1.1867
     1.4961   1.5697   1.6201   1.6579   1.7862   2.8339   8.8402   9.5418
    10.4578  10.7405  11.1767  11.7332  11.8769  12.7641  13.2443  14.9565
    15.6001  16.3473  16.9277  17.3430  17.7391  17.7530  18.2986  18.3316

          k = 0.0000 0.2500 0.4167 (  9647 PWs)   bands (ev):

   -17.1415 -17.0695 -17.0555 -16.0255 -11.0246 -11.0217 -11.0188 -11.0113
   -10.8584  -3.0366  -2.8877  -2.7642  -2.5428   0.1682   0.9145   1.1988
     1.5177   1.5651   1.5993   1.6428   1.7877   3.1705   8.5132   9.5544
    10.4226  10.7564  11.4734  11.9374  11.9949  12.6091  13.2630  14.5666
    15.8599  16.0447  16.7309  17.3479  17.3718  17.4691  18.5259  18.6251

          k = 0.0000 0.2500-0.5000 (  9604 PWs)   bands (ev):

   -17.1377 -17.0688 -17.0537 -16.0263 -11.0250 -11.0234 -11.0221 -11.0188
   -10.8594  -3.0540  -2.8789  -2.7602  -2.5827   0.1718   0.9318   1.1989
     1.5344   1.5653   1.5898   1.6310   1.7874   3.3076   8.3773   9.5603
    10.4094  10.7632  11.6622  11.9762  11.9880  12.5338  13.6285  13.9774
    16.0064  16.1461  16.5893  17.1878  17.2789  17.3956  18.6092  18.7978

          k = 0.0000 0.3333 0.3333 (  9619 PWs)   bands (ev):

   -17.1392 -17.0654 -17.0562 -16.0257 -11.0249 -11.0205 -11.0204 -11.0102
   -10.8719  -3.0056  -2.9410  -2.7623  -2.6082   0.1795   1.0834   1.1823
     1.4984   1.5565   1.5939   1.6631   1.8178   3.1541   8.8824   9.1655
    10.4723  10.7702  11.2254  11.8393  12.0578  12.5030  13.0140  15.1117
    15.9471  16.0063  16.7526  17.2105  17.9507  18.2516  18.3105  18.3260

          k = 0.0000 0.3333 0.4167 (  9624 PWs)   bands (ev):

   -17.1308 -17.0609 -17.0524 -16.0275 -11.0373 -11.0259 -11.0216 -11.0203
   -10.8800  -3.0399  -2.9366  -2.7528  -2.7272   0.1952   1.1762   1.2035
     1.5283   1.5496   1.5719   1.6514   1.8330   3.4522   8.6392   9.1182
    10.4818  10.7621  11.3048  11.8599  12.2764  12.3246  13.0930  14.7131
    15.7556  16.3116  16.7682  17.1126  18.0032  18.0468  18.5807  18.6184

          k = 0.0000 0.3333-0.5000 (  9614 PWs)   bands (ev):

   -17.1280 -17.0594 -17.0506 -16.0281 -11.0479 -11.0263 -11.0220 -11.0203
   -10.8823  -3.0561  -2.9258  -2.7733  -2.7493   0.2010   1.1770   1.2337
     1.5495   1.5537   1.5613   1.6373   1.8371   3.5768   8.5047   9.1334
    10.4849  10.7630  11.3337  11.8948  12.1692  12.3386  13.5133  14.1191
    15.7997  16.4904  16.8560  17.0012  17.8941  17.9651  18.6749  18.8278

          k = 0.0000 0.4167 0.4167 (  9612 PWs)   bands (ev):

   -17.1245 -17.0534 -17.0498 -16.0289 -11.0608 -11.0269 -11.0215 -11.0215
   -10.8915  -3.0418  -2.9632  -2.8533  -2.7444   0.2154   1.1654   1.3788
     1.5391   1.5485   1.5505   1.6405   1.8612   3.7197   8.7050   8.7851
    10.5344  10.7154  11.1796  11.8269  12.0300  12.8533  13.0529  14.7469
    14.9588  16.7324  16.8962  17.1403  18.5329  18.5383  18.6341  18.6960

          k = 0.0000 0.4167-0.5000 (  9604 PWs)   bands (ev):

   -17.1224 -17.0509 -17.0483 -16.0295 -11.0702 -11.0273 -11.0219 -11.0215
   -10.8950  -3.0445  -2.9593  -2.9080  -2.7413   0.2229   1.1603   1.4385
     1.5374   1.5405   1.5710   1.6204   1.8706   3.8335   8.6014   8.7794
    10.5564  10.6964  11.1270  11.8410  11.9159  12.9346  13.4550  14.2181
    14.8933  16.9248  17.0428  17.0697  18.5484  18.6209  18.7733  18.9112

          k = 0.0000-0.5000-0.5000 (  9580 PWs)   bands (ev):

   -17.1207 -17.0474 -17.0474 -16.0300 -11.0792 -11.0276 -11.0219 -11.0219
   -10.8988  -3.0232  -2.9715  -2.9715  -2.7383   0.2311   1.1541   1.5328
     1.5328   1.5427   1.5777   1.5777   1.8824   3.9433   8.6379   8.6379
    10.5879  10.6621  11.0570  11.8224  11.8224  13.4085  13.4790  14.2540
    14.2540  17.1101  17.1101  17.1160  18.8691  18.9540  18.9540  18.9690

          k = 0.0833 0.0833 0.0833 (  9645 PWs)   bands (ev):

   -17.2202 -17.0794 -17.0794 -16.0089 -11.0167 -11.0167 -11.0167 -10.8148
   -10.8148  -2.8578  -2.8578  -2.8556  -1.4240   0.1916   0.1916   0.5613
     1.6038   1.6038   1.6461   1.7231   1.7231   1.7389   9.4822   9.9451
     9.9451  10.9482  10.9482  10.9986  12.0412  12.0412  12.4733  16.3232
    17.2944  17.2944  17.4388  17.6037  17.6037  17.8918  19.0130  19.0130

          k = 0.0833 0.0833 0.1667 (  9635 PWs)   bands (ev):

   -17.2077 -17.0793 -17.0754 -16.0118 -11.0179 -11.0178 -11.0166 -10.8507
   -10.8148  -2.8901  -2.8462  -2.8445  -1.6738   0.1938   0.2597   0.8532
     1.5772   1.5956   1.6521   1.7124   1.7189   1.8263   9.3650  10.0202
    10.0818  10.7455  10.8768  11.1044  11.9930  12.3679  12.7819  15.7810
    16.8275  17.1391  17.1809  17.5009  17.5972  18.1129  18.4804  19.0511

          k = 0.0833 0.0833 0.2500 (  9626 PWs)   bands (ev):

   -17.1905 -17.0791 -17.0698 -16.0157 -11.0195 -11.0194 -11.0166 -10.8999
   -10.8147  -2.9379  -2.8303  -2.8274  -1.9118   0.1961   0.2862   1.1033
     1.5527   1.5857   1.6466   1.7001   1.7029   2.0955   9.0410  10.1091
    10.3407  10.5802  10.9114  11.3069  12.0248  12.7407  13.0506  15.3690
    16.2548  16.6249  16.7938  17.3309  17.6487  17.8307  17.9970  19.3751

          k = 0.0833 0.0833 0.3333 (  9638 PWs)   bands (ev):

   -17.1731 -17.0788 -17.0641 -16.0197 -11.0211 -11.0210 -11.0165 -10.9493
   -10.8147  -2.9887  -2.8141  -2.8087  -2.0897   0.1977   0.3001   1.1998
     1.5349   1.5798   1.6323   1.6815   1.6907   2.5149   8.6484  10.1482
    10.3840  10.5193  11.3499  11.5522  12.0933  13.1021  13.2024  15.0814
    15.7582  15.9937  16.4812  16.5439  17.2005  18.1126  18.1641  19.4155

          k = 0.0833 0.0833 0.4167 (  9638 PWs)   bands (ev):

   -17.1603 -17.0787 -17.0599 -16.0226 -11.0223 -11.0221 -11.0165 -10.9854
   -10.8147  -3.0278  -2.8021  -2.7934  -2.1966   0.1984   0.3080   1.2234
     1.5253   1.5804   1.6176   1.6609   1.6851   2.8852   8.3212  10.1257
    10.3412  10.5486  11.7735  11.9431  12.1625  13.2862  13.3930  14.5463
    15.3908  15.6652  16.1079  16.2615  16.7474  18.3611  18.4019  19.4527

          k = 0.0833 0.0833-0.5000 (  9646 PWs)   bands (ev):

   -17.1556 -17.0786 -17.0584 -16.0236 -11.0228 -11.0225 -11.0165 -10.9987
   -10.8147  -3.0424  -2.7977  -2.7874  -2.2322   0.1985   0.3106   1.2269
     1.5226   1.5826   1.6115   1.6516   1.6831   3.0329   8.1908  10.1095
    10.3215  10.5713  11.8771  12.1659  12.2562  13.4917  13.5144  13.9818
    15.2446  15.7016  15.9653  16.1822  16.5271  18.4635  18.5060  19.4732

          k = 0.0833 0.1667 0.1667 (  9635 PWs)   bands (ev):

   -17.1954 -17.0771 -17.0732 -16.0143 -11.0190 -11.0178 -11.0178 -10.8682
   -10.8329  -2.8835  -2.8797  -2.8348  -1.8933   0.2217   0.4125   0.9788
     1.5519   1.5818   1.6677   1.7021   1.7403   1.9317   9.3836   9.9095
    10.1298  10.7029  10.9787  11.0277  12.0180  12.5213  13.0239  15.3597
    16.4053  17.2312  17.3452  17.4471  17.7551  17.9326  18.3183  18.7559

          k = 0.0833 0.1667 0.2500 (  9622 PWs)   bands (ev):

   -17.1787 -17.0761 -17.0682 -16.0178 -11.0205 -11.0194 -11.0177 -10.9114
   -10.8385  -2.9348  -2.8678  -2.8197  -2.1140   0.2310   0.5136   1.1202
     1.5260   1.5713   1.6682   1.6875   1.7423   2.2231   9.1337   9.8903
    10.2549  10.6512  11.0600  11.2108  12.0247  12.8020  13.1398  15.1581
    15.9076  16.9774  17.0531  17.3859  17.6300  17.8968  18.1354  18.6581

          k = 0.0833 0.1667 0.3333 (  9622 PWs)   bands (ev):

   -17.1620 -17.0756 -17.0624 -16.0213 -11.0221 -11.0210 -11.0177 -10.9589
   -10.8399  -2.9916  -2.8515  -2.8034  -2.2850   0.2381   0.5624   1.1936
     1.5118   1.5648   1.6516   1.6743   1.7363   2.6371   8.7384   9.8909
    10.3221  10.6604  11.2915  11.5363  12.0781  12.9410  13.2198  15.0256
    15.6077  16.2970  16.7023  16.8257  17.6152  17.9985  18.2342  18.7345

          k = 0.0833 0.1667 0.4167 (  9637 PWs)   bands (ev):

   -17.1499 -17.0752 -17.0579 -16.0238 -11.0233 -11.0221 -11.0176 -10.9943
   -10.8403  -3.0354  -2.8372  -2.7898  -2.3919   0.2427   0.5867   1.2173
     1.5092   1.5664   1.6354   1.6554   1.7320   2.9984   8.4003   9.8677
    10.3293  10.6926  11.5784  11.8655  12.1411  12.9906  13.3975  14.4892
    15.4858  16.0239  16.3666  16.5653  17.2839  18.1250  18.4372  18.8858

          k = 0.0833 0.1667-0.5000 (  9628 PWs)   bands (ev):

   -17.1454 -17.0750 -17.0562 -16.0247 -11.0237 -11.0226 -11.0176 -11.0074
   -10.8404  -3.0519  -2.8313  -2.7841  -2.4287   0.2442   0.5945   1.2216
     1.5100   1.5699   1.6302   1.6433   1.7307   3.1431   8.2655   9.8553
    10.3265  10.7084  11.7780  11.8839  12.1757  13.1551  13.7311  13.8006
    15.4174  16.1264  16.2112  16.4882  17.0772  18.1710  18.5297  18.9784

          k = 0.0833 0.2500 0.2500 (  9621 PWs)   bands (ev):

   -17.1629 -17.0729 -17.0647 -16.0206 -11.0220 -11.0194 -11.0193 -10.9399
   -10.8582  -2.9421  -2.9104  -2.8070  -2.3242   0.2479   0.7345   1.1536
     1.5002   1.5604   1.6653   1.6824   1.7727   2.4941   9.1448   9.5701
    10.2511  10.7551  11.1424  11.3597  11.9972  12.8044  13.1681  15.1452
    15.6503  17.0319  17.1206  17.3619  17.6530  18.0029  18.0563  18.1009

          k = 0.0833 0.2500 0.3333 (  9621 PWs)   bands (ev):

   -17.1476 -17.0705 -17.0596 -16.0234 -11.0235 -11.0209 -11.0193 -10.9797
   -10.8668  -2.9970  -2.9050  -2.7933  -2.4919   0.2624   0.8637   1.1900
     1.4923   1.5524   1.6439   1.6797   1.7845   2.8681   8.8447   9.4864
    10.2679  10.8088  11.2755  11.6755  12.0316  12.6488  13.2109  15.0248
    15.7414  16.3600  16.9585  17.2999  17.4962  17.9627  18.2717  18.3233

          k = 0.0833 0.2500 0.4167 (  9643 PWs)   bands (ev):

   -17.1369 -17.0690 -17.0551 -16.0255 -11.0246 -11.0221 -11.0192 -11.0120
   -10.8700  -3.0457  -2.8888  -2.7815  -2.6018   0.2726   0.9253   1.2069
     1.5031   1.5518   1.6286   1.6631   1.7873   3.2031   8.5052   9.4845
    10.2968  10.8267  11.4475  11.8457  12.1360  12.6587  13.2806  14.5519
    15.7089  16.2979  16.7042  17.0906  17.4393  17.8334  18.4937  18.6385

          k = 0.0833 0.2500-0.5000 (  9624 PWs)   bands (ev):

   -17.1332 -17.0684 -17.0533 -16.0263 -11.0250 -11.0242 -11.0225 -11.0192
   -10.8708  -3.0643  -2.8800  -2.7756  -2.6426   0.2762   0.9442   1.2091
     1.5105   1.5552   1.6264   1.6486   1.7877   3.3397   8.3664   9.4828
    10.3103  10.8324  11.5690  11.7863  12.1890  12.7368  13.6291  13.9344
    15.7356  16.4489  16.5332  17.0123  17.4300  17.7122  18.5821  18.8093

          k = 0.0833 0.3333 0.3333 (  9640 PWs)   bands (ev):

   -17.1345 -17.0648 -17.0561 -16.0256 -11.0249 -11.0209 -11.0208 -11.0102
   -10.8841  -3.0184  -2.9420  -2.7838  -2.6576   0.2846   1.0875   1.1914
     1.4889   1.5422   1.6244   1.6835   1.8170   3.1863   8.8710   9.0997
    10.2416  10.8562  11.3576  11.8529  12.1324  12.4053  13.0842  15.0767
    15.9757  16.0478  16.8470  17.2197  17.9516  18.0023  18.2491  18.4245

          k = 0.0833 0.3333 0.4167 (  9634 PWs)   bands (ev):

   -17.1260 -17.0606 -17.0522 -16.0272 -11.0374 -11.0260 -11.0220 -11.0208
   -10.8921  -3.0576  -2.9389  -2.7867  -2.7577   0.3006   1.1891   1.2105
     1.5046   1.5384   1.6130   1.6712   1.8329   3.4830   8.6049   9.0519
    10.2508  10.8453  11.4006  11.8939  12.2751  12.4360  13.1199  14.6856
    15.6763  16.3121  16.8634  17.1363  17.7689  18.3183  18.5044  18.6454

          k = 0.0833 0.3333-0.5000 (  9640 PWs)   bands (ev):

   -17.1232 -17.0592 -17.0503 -16.0278 -11.0481 -11.0264 -11.0224 -11.0208
   -10.8942  -3.0755  -2.9276  -2.8189  -2.7669   0.3065   1.1936   1.2399
     1.5143   1.5407   1.6156   1.6567   1.8374   3.6072   8.4666   9.0613
    10.2630  10.8337  11.4065  11.8887  12.3424  12.3931  13.5121  14.0981
    15.7123  16.4449  16.8205  17.1332  17.6707  18.3340  18.6530  18.8324

          k = 0.0833 0.4167 0.4167 (  9629 PWs)   bands (ev):

   -17.1196 -17.0532 -17.0497 -16.0285 -11.0608 -11.0270 -11.0220 -11.0219
   -10.9036  -3.0724  -2.9655  -2.8863  -2.7625   0.3212   1.1850   1.3813
     1.5086   1.5304   1.6078   1.6612   1.8614   3.7495   8.6522   8.7152
    10.2166  10.8012  11.3868  11.8990  12.1257  12.8579  13.0670  14.7212
    14.9423  16.5659  17.0508  17.1300  18.3411  18.4750  18.7106  18.7554

          k = 0.0833 0.4167-0.5000 (  9628 PWs)   bands (ev):

   -17.1175 -17.0508 -17.0481 -16.0289 -11.0702 -11.0274 -11.0224 -11.0219
   -10.9069  -3.0814  -2.9618  -2.9334  -2.7605   0.3288   1.1817   1.4382
     1.5124   1.5312   1.6150   1.6432   1.8710   3.8631   8.5400   8.7086
    10.2060  10.7745  11.3925  11.9025  12.0325  12.9406  13.4496  14.2084
    14.8740  16.7654  17.0225  17.1683  18.3335  18.7438  18.8139  18.8861

          k = 0.0833-0.5000-0.5000 (  9624 PWs)   bands (ev):

   -17.1158 -17.0473 -17.0473 -16.0293 -11.0791 -11.0277 -11.0224 -11.0224
   -10.9108  -3.0820  -2.9741  -2.9741  -2.7581   0.3371   1.1773   1.5103
     1.5103   1.5428   1.6165   1.6165   1.8828   3.9728   8.5670   8.5670
    10.1808  10.7454  11.4241  11.8968  11.8968  13.4029  13.4702  14.2479
    14.2479  17.0159  17.0961  17.0961  18.8184  18.8184  18.8325  18.8824

          k = 0.1667 0.1667 0.1667 (  9627 PWs)   bands (ev):

   -17.1833 -17.0731 -17.0731 -16.0165 -11.0190 -11.0190 -11.0189 -10.8682
   -10.8682  -2.8794  -2.8722  -2.8722  -2.0889   0.4170   0.4170   1.0480
     1.5481   1.5481   1.6927   1.7300   1.7300   2.0579   9.4696   9.8689
     9.8689  10.8663  10.8663  11.1369  12.3313  12.3313  13.0824  15.1665
    16.8923  16.8923  17.3953  17.3953  17.5716  17.6394  18.3691  18.3691

          k = 0.1667 0.1667 0.2500 (  9630 PWs)   bands (ev):

   -17.1668 -17.0728 -17.0673 -16.0194 -11.0207 -11.0204 -11.0189 -10.9166
   -10.8682  -2.9351  -2.8634  -2.8619  -2.2919   0.4226   0.5690   1.1336
     1.5203   1.5413   1.6977   1.7273   1.7344   2.3534   9.2222   9.7953
     9.8926  10.8181  11.1595  11.2323  12.2369  12.6905  12.9385  15.2481
    16.3321  16.6889  17.1738  17.3472  17.7450  17.7606  17.9380  18.4423

          k = 0.1667 0.1667 0.3333 (  9629 PWs)   bands (ev):

   -17.1505 -17.0725 -17.0611 -16.0224 -11.0223 -11.0219 -11.0189 -10.9651
   -10.8682  -2.9999  -2.8515  -2.8447  -2.4532   0.4277   0.6557   1.1943
     1.5023   1.5386   1.6808   1.7166   1.7372   2.7563   8.7925   9.7109
    10.0604  10.8301  11.3135  11.5621  12.2196  12.7756  13.0329  15.2164
    15.8552  16.2749  16.7441  16.9470  17.8793  17.9344  18.1939  18.5876

          k = 0.1667 0.1667 0.4167 (  9630 PWs)   bands (ev):

   -17.1387 -17.0724 -17.0563 -16.0245 -11.0235 -11.0229 -11.0188 -11.0007
   -10.8681  -3.0503  -2.8439  -2.8226  -2.5586   0.4311   0.7012   1.2224
     1.4937   1.5463   1.6645   1.6910   1.7441   3.1084   8.4370   9.6470
    10.1749  10.8609  11.4470  11.7623  12.2530  12.9608  13.2990  14.5229
    15.5121  16.3610  16.3759  16.7875  17.7884  18.0322  18.3483  18.8077

          k = 0.1667 0.1667-0.5000 (  9588 PWs)   bands (ev):

   -17.1345 -17.0723 -17.0544 -16.0253 -11.0240 -11.0233 -11.0188 -11.0138
   -10.8681  -3.0693  -2.8411  -2.8106  -2.5976   0.4323   0.7159   1.2294
     1.4915   1.5536   1.6580   1.6774   1.7463   3.2502   8.2967   9.6236
    10.2124  10.8755  11.6282  11.6282  12.2889  13.4057  13.5599  13.7314
    15.3803  16.2353  16.5236  16.7301  17.6580  18.0567  18.4192  18.9271

          k = 0.1667 0.2500 0.2500 (  9625 PWs)   bands (ev):

   -17.1508 -17.0694 -17.0645 -16.0216 -11.0221 -11.0205 -11.0204 -10.9399
   -10.8927  -2.9528  -2.9082  -2.8548  -2.4785   0.4918   0.7424   1.1628
     1.5016   1.5281   1.7123   1.7204   1.7645   2.6184   9.2305   9.4380
     9.8128  10.9666  11.3091  11.3642  12.2917  12.6020  12.8558  15.4515
    16.0801  16.7351  17.2691  17.3807  17.5562  17.7273  17.9961  18.0121

          k = 0.1667 0.2500 0.3333 (  9631 PWs)   bands (ev):

   -17.1354 -17.0679 -17.0590 -16.0238 -11.0236 -11.0220 -11.0204 -10.9813
   -10.8992  -3.0194  -2.9071  -2.8453  -2.6265   0.5124   0.8855   1.2018
     1.4882   1.5238   1.6956   1.7213   1.7801   2.9808   8.8452   9.3475
     9.8670  11.0152  11.4334  11.6504  12.2676  12.4679  13.0695  15.2476
    15.9227  16.3961  16.9631  17.2338  17.5621  18.0376  18.0739  18.3063

          k = 0.1667 0.2500 0.4167 (  9633 PWs)   bands (ev):

   -17.1247 -17.0671 -17.0540 -16.0255 -11.0248 -11.0231 -11.0204 -11.0148
   -10.9009  -3.0784  -2.8927  -2.8323  -2.7276   0.5233   0.9626   1.2284
     1.4855   1.5301   1.6830   1.7038   1.7879   3.3076   8.4784   9.3020
     9.9561  11.0358  11.4849  11.7107  12.3332  12.7707  13.2548  14.5470
    15.6099  16.5634  16.6382  17.1608  17.5208  18.2021  18.3438  18.6493

          k = 0.1667 0.2500-0.5000 (  9640 PWs)   bands (ev):

   -17.1210 -17.0669 -17.0520 -16.0261 -11.0273 -11.0252 -11.0236 -11.0204
   -10.9013  -3.1009  -2.8839  -2.8160  -2.7760   0.5270   0.9874   1.2352
     1.4857   1.5381   1.6848   1.6851   1.7906   3.4417   8.3333   9.2826
     9.9964  11.0415  11.5281  11.6347  12.3700  13.0889  13.6151  13.7995
    15.5269  16.4740  16.7122  17.1325  17.5099  18.2231  18.4274  18.8277

          k = 0.1667 0.3333 0.3333 (  9635 PWs)   bands (ev):

   -17.1217 -17.0629 -17.0558 -16.0253 -11.0251 -11.0221 -11.0220 -11.0102
   -10.9177  -3.0681  -2.9447  -2.8473  -2.7515   0.5470   1.0986   1.2171
     1.4796   1.5170   1.6876   1.7251   1.8149   3.2904   8.8318   8.9345
     9.7892  11.0794  11.5615  11.8814  12.2796  12.3321  13.1061  15.1140
    15.8607  16.2092  17.0300  17.2246  17.8285  17.8758  18.2420  18.4221

          k = 0.1667 0.3333 0.4167 (  9632 PWs)   bands (ev):

   -17.1130 -17.0596 -17.0516 -16.0264 -11.0378 -11.0262 -11.0232 -11.0220
   -10.9249  -3.1265  -2.9458  -2.8733  -2.8064   0.5665   1.2164   1.2376
     1.4834   1.5186   1.6809   1.7144   1.8329   3.5811   8.5086   8.8847
     9.7752  11.0678  11.5796  11.9227  12.4258  12.5842  13.1582  14.6248
    15.5258  16.3358  16.8997  17.2450  17.7110  18.3505  18.5249  18.6517

          k = 0.1667 0.3333-0.5000 (  9654 PWs)   bands (ev):

   -17.1101 -17.0586 -17.0495 -16.0268 -11.0488 -11.0266 -11.0236 -11.0220
   -10.9267  -3.1506  -2.9328  -2.9033  -2.8139   0.5731   1.2378   1.2581
     1.4872   1.5253   1.6831   1.7007   1.8383   3.7036   8.3630   8.8786
     9.7779  11.0531  11.5814  11.8875  12.5152  12.6930  13.5045  14.0191
    15.5131  16.4059  16.7756  17.2961  17.6590  18.5515  18.6234  18.8345

          k = 0.1667 0.4167 0.4167 (  9643 PWs)   bands (ev):

   -17.1062 -17.0526 -17.0494 -16.0271 -11.0608 -11.0272 -11.0232 -11.0232
   -10.9365  -3.1806  -2.9716  -2.9341  -2.8117   0.5919   1.2371   1.3889
     1.4849   1.5150   1.6789   1.7090   1.8621   3.8435   8.5122   8.5378
     9.6676  11.0314  11.6730  12.0827  12.3560  12.8706  13.0949  14.6467
    14.8785  16.3953  17.1121  17.1365  18.1978  18.3437  18.7716  18.7831

          k = 0.1667 0.4167-0.5000 (  9636 PWs)   bands (ev):

   -17.1041 -17.0504 -17.0477 -16.0274 -11.0702 -11.0276 -11.0236 -11.0232
   -10.9398  -3.2038  -2.9685  -2.9647  -2.8117   0.6007   1.2389   1.4394
     1.4884   1.5220   1.6829   1.6961   1.8720   3.9562   8.3806   8.5286
     9.6326  11.0120  11.7365  12.0593  12.3276  12.9538  13.4343  14.1618
    14.8054  16.5231  17.0133  17.2063  18.2068  18.6726  18.7335  18.8844

          k = 0.1667-0.5000-0.5000 (  9628 PWs)   bands (ev):

   -17.1023 -17.0470 -17.0470 -16.0276 -11.0791 -11.0280 -11.0237 -11.0237
   -10.9435  -3.2266  -2.9814  -2.9814  -2.8108   0.6103   1.2393   1.4883
     1.4883   1.5432   1.6834   1.6834   1.8840   4.0652   8.3862   8.3862
     9.5827  10.9940  11.9027  12.0905  12.0905  13.3875  13.4461  14.2118
    14.2118  16.6931  17.1054  17.1054  18.4950  18.7113  18.7113  18.9185

          k = 0.2500 0.2500 0.2500 (  9651 PWs)   bands (ev):

   -17.1347 -17.0642 -17.0642 -16.0230 -11.0222 -11.0222 -11.0217 -10.9399
   -10.9399  -2.9928  -2.9051  -2.9051  -2.6339   0.7529   0.7529   1.1864
     1.5018   1.5018   1.7510   1.7510   1.7571   2.8591   9.2767   9.2767
     9.3806  11.3025  11.3025  11.5345  12.3440  12.6244  12.6244  15.7687
    16.2838  16.2838  17.2969  17.2969  17.6145  17.8071  17.9277  17.9277

          k = 0.2500 0.2500 0.3333 (  9648 PWs)   bands (ev):

   -17.1194 -17.0639 -17.0579 -16.0244 -11.0239 -11.0234 -11.0220 -10.9873
   -10.9399  -3.0777  -2.9178  -2.9021  -2.7483   0.7631   0.9489   1.2239
     1.4851   1.5025   1.7387   1.7596   1.7832   3.1901   8.8130   9.1325
     9.4631  11.3226  11.5798  11.6668  12.2614  12.5435  12.9344  15.4479
    15.8658  16.3557  17.0057  17.2848  17.6987  17.9134  18.1190  18.2639

          k = 0.2500 0.2500 0.4167 (  9638 PWs)   bands (ev):

   -17.1089 -17.0637 -17.0524 -16.0254 -11.0252 -11.0244 -11.0222 -11.0219
   -10.9398  -3.1514  -2.9090  -2.8999  -2.8235   0.7704   1.0604   1.2569
     1.4771   1.5126   1.7280   1.7443   1.8000   3.4962   8.4310   9.0354
     9.5427  11.3458  11.6107  11.6387  12.4885  12.8295  13.1661  14.5621
    15.5666  16.5639  16.7329  17.3228  17.5441  18.1870  18.4071  18.6457

          k = 0.2500 0.2500-0.5000 (  9626 PWs)   bands (ev):

   -17.1053 -17.0636 -17.0502 -16.0258 -11.0349 -11.0256 -11.0248 -11.0221
   -10.9398  -3.1789  -2.8991  -2.8939  -2.8597   0.7730   1.0968   1.2670
     1.4749   1.5227   1.7238   1.7321   1.8057   3.6241   8.2815   9.0014
     9.5726  11.3555  11.5740  11.6271  12.5084  13.2554  13.5612  13.7085
    15.4547  16.5961  16.6841  17.3936  17.4308  18.2354  18.5558  18.8281

          k = 0.2500 0.3333 0.3333 (  9629 PWs)   bands (ev):

   -17.1046 -17.0597 -17.0555 -16.0250 -11.0253 -11.0238 -11.0235 -11.0101
   -10.9638  -3.1740  -2.9483  -2.9137  -2.8261   0.8593   1.1138   1.2547
     1.4784   1.4956   1.7515   1.7679   1.8133   3.4800   8.7346   8.7507
     9.2854  11.4513  11.6992  11.9144  12.2496  12.5912  12.9897  15.2851
    15.6451  16.1333  17.0757  17.2101  17.9156  17.9257  18.2564  18.3678

          k = 0.2500 0.3333 0.4167 (  9631 PWs)   bands (ev):

   -17.0953 -17.0579 -17.0508 -16.0254 -11.0391 -11.0264 -11.0248 -11.0237
   -10.9693  -3.2543  -2.9581  -2.9282  -2.8654   0.8853   1.2455   1.2860
     1.4747   1.5015   1.7487   1.7633   1.8341   3.7568   8.3729   8.6741
     9.2356  11.4391  11.7604  11.9653  12.6197  12.7200  13.1219  14.5827
    15.3717  16.2027  16.9299  17.2398  17.8634  18.2899  18.3712  18.6613

          k = 0.2500 0.3333-0.5000 (  9638 PWs)   bands (ev):

   -17.0923 -17.0574 -17.0484 -16.0255 -11.0507 -11.0268 -11.0252 -11.0238
   -10.9703  -3.2839  -2.9563  -2.9408  -2.8752   0.8925   1.2902   1.2951
     1.4741   1.5115   1.7508   1.7518   1.8411   3.8751   8.2240   8.6467
     9.2238  11.4276  11.8092  11.9054  12.6428  13.0085  13.4795  13.8849
    15.3115  16.2417  16.8519  17.2565  17.8297  18.3970  18.5483  18.7843

          k = 0.2500 0.4167 0.4167 (  9645 PWs)   bands (ev):

   -17.0877 -17.0516 -17.0490 -16.0253 -11.0607 -11.0275 -11.0250 -11.0249
   -10.9818  -3.3362  -2.9798  -2.9617  -2.8768   0.9268   1.3058   1.4009
     1.4749   1.5011   1.7528   1.7663   1.8631   4.0102   8.3197   8.3303
     9.0782  11.4182  11.9306  12.3109  12.6004  12.8899  13.0951  14.5566
    14.7489  16.0848  17.0799  17.2336  18.1108  18.3375  18.5087  18.7493

          k = 0.2500 0.4167-0.5000 (  9638 PWs)   bands (ev):

   -17.0855 -17.0500 -17.0471 -16.0253 -11.0703 -11.0279 -11.0254 -11.0250
   -10.9847  -3.3660  -2.9835  -2.9776  -2.8792   0.9387   1.3141   1.4452
     1.4764   1.5145   1.7557   1.7600   1.8734   4.1205   8.1791   8.3063
     9.0298  11.4100  12.0471  12.2580  12.6636  12.9629  13.4113  14.0512
    14.6812  16.0937  17.1116  17.2374  18.1191  18.5215  18.5573  18.7290

          k = 0.2500-0.5000-0.5000 (  9644 PWs)   bands (ev):

   -17.0837 -17.0466 -17.0466 -16.0252 -11.0791 -11.0283 -11.0254 -11.0254
   -10.9884  -3.3959  -2.9913  -2.9913  -2.8802   0.9522   1.3209   1.4774
     1.4774   1.5438   1.7568   1.7568   1.8856   4.2280   8.1623   8.1623
     8.9690  11.4041  12.3239  12.3449  12.3449  13.3664  13.4137  14.1123
    14.1123  16.1090  17.2339  17.2339  18.0830  18.5973  18.7103  18.7103

          k = 0.3333 0.3333 0.3333 (  9648 PWs)   bands (ev):

   -17.0887 -17.0551 -17.0551 -16.0246 -11.0256 -11.0256 -11.0249 -11.0101
   -11.0101  -3.2977  -2.9520  -2.9520  -2.8819   1.1291   1.1291   1.2974
     1.4812   1.4812   1.7933   1.7933   1.8225   3.7434   8.5559   8.5559
     8.8977  11.7659  11.9455  11.9455  12.3162  12.8431  12.8431  15.3866
    15.3866  15.5837  17.2227  17.2227  17.7457  18.1604  18.3514  18.3514

          k = 0.3333 0.3333 0.4167 (  9651 PWs)   bands (ev):

   -17.0788 -17.0548 -17.0499 -16.0243 -11.0441 -11.0268 -11.0263 -11.0254
   -11.0101  -3.3865  -2.9745  -2.9547  -2.9163   1.1402   1.2997   1.3356
     1.4734   1.4896   1.7957   1.8047   1.8429   4.0004   8.2351   8.4352
     8.7639  11.8444  11.9677  12.1071  12.7690  12.7927  13.0314  14.5614
    15.1772  15.6579  17.1453  17.2577  17.9551  18.1531  18.4700  18.6471

          k = 0.3333 0.3333-0.5000 (  9648 PWs)   bands (ev):

   -17.0758 -17.0548 -17.0473 -16.0242 -11.0566 -11.0273 -11.0267 -11.0255
   -11.0101  -3.4180  -2.9829  -2.9556  -2.9273   1.1443   1.3490   1.3541
     1.4710   1.5014   1.7951   1.8023   1.8514   4.1124   8.0887   8.3928
     8.7326  11.8990  11.9757  12.0652  12.7561  13.1030  13.4327  13.8218
    15.0957  15.7104  17.0627  17.2766  18.1233  18.2506  18.3694  18.7415

          k = 0.3333 0.4167 0.4167 (  9663 PWs)   bands (ev):

   -17.0693 -17.0505 -17.0486 -16.0235 -11.0607 -11.0278 -11.0272 -11.0268
   -11.0266  -3.4778  -2.9880  -2.9791  -2.9390   1.2289   1.3720   1.4156
     1.4735   1.4889   1.8151   1.8195   1.8648   4.2419   8.1215   8.1531
     8.5252  11.9325  12.1985  12.5193  12.7771  12.9192  13.0271  14.5075
    14.5737  15.3864  17.2747  17.4294  17.8128  18.4242  18.4466  18.6773

          k = 0.3333 0.4167-0.5000 (  9646 PWs)   bands (ev):

   -17.0669 -17.0494 -17.0465 -16.0232 -11.0706 -11.0297 -11.0282 -11.0271
   -11.0267  -3.5098  -2.9967  -2.9869  -2.9438   1.2436   1.3862   1.4553
     1.4726   1.5085   1.8188   1.8209   1.8752   4.3490   7.9922   8.1013
     8.4645  11.9549  12.3410  12.4582  12.9180  12.9577  13.3830  13.8980
    14.5318  15.3603  17.3211  17.4288  17.9192  18.3041  18.5201  18.7811

          k = 0.3333-0.5000-0.5000 (  9640 PWs)   bands (ev):

   -17.0649 -17.0462 -17.0462 -16.0229 -11.0790 -11.0336 -11.0286 -11.0272
   -11.0272  -3.5420  -3.0012  -3.0012  -2.9468   1.2634   1.3991   1.4740
     1.4740   1.5444   1.8240   1.8240   1.8872   4.4546   7.9575   7.9575
     8.3935  11.9666  12.6100  12.6100  12.6564  13.3451  13.3818  13.9460
    13.9460  15.3052  17.5138  17.5138  17.7023  18.2577  18.7822  18.7822

          k = 0.4167 0.4167 0.4167 (  9664 PWs)   bands (ev):

   -17.0570 -17.0483 -17.0483 -16.0222 -11.0607 -11.0607 -11.0281 -11.0281
   -11.0278  -3.5721  -2.9940  -2.9940  -2.9788   1.4194   1.4297   1.4297
     1.4783   1.4783   1.8526   1.8526   1.8710   4.4754   7.9859   7.9859
     8.1394  12.3288  12.6537  12.6537  12.8483  12.9631  12.9631  14.4159
    14.4159  14.6078  17.5304  17.6250  17.6250  18.2796  18.6357  18.8243

          k = 0.4167 0.4167-0.5000 (  9646 PWs)   bands (ev):

   -17.0539 -17.0482 -17.0461 -16.0217 -11.0729 -11.0607 -11.0285 -11.0283
   -11.0280  -3.6048  -3.0053  -2.9962  -2.9871   1.4366   1.4369   1.4684
     1.4729   1.5124   1.8584   1.8636   1.8795   4.5809   7.8627   7.9379
     8.0484  12.5292  12.6174  12.6950  12.9605  12.9904  13.3562  13.7866
    14.3507  14.5522  17.4516  17.7033  17.8191  18.1499  18.7133  18.9067

          k = 0.4167-0.5000-0.5000 (  9652 PWs)   bands (ev):

   -17.0509 -17.0459 -17.0459 -16.0211 -11.0790 -11.0668 -11.0289 -11.0285
   -11.0285  -3.6377  -3.0083  -3.0083  -2.9940   1.4545   1.4725   1.4740
     1.4740   1.5448   1.8716   1.8716   1.8884   4.6866   7.8165   7.8165
     7.9455  12.6631  12.8411  12.8411  12.8731  13.3297  13.3587  13.7599
    13.7599  14.4089  17.4348  17.8549  17.8549  18.0803  18.9160  18.9160

          k =-0.5000-0.5000-0.5000 (  9568 PWs)   bands (ev):

   -17.0458 -17.0458 -17.0458 -16.0205 -11.0790 -11.0790 -11.0290 -11.0290
   -11.0290  -3.6708  -3.0109  -3.0109  -3.0109   1.4744   1.4744   1.4744
     1.5450   1.5450   1.8889   1.8889   1.8889   4.7935   7.7665   7.7665
     7.7665  12.9491  12.9491  12.9491  13.3066  13.3504  13.3504  13.6637
    13.6637  13.6637  17.3384  18.0257  18.0257  18.0257  19.0628  19.0628

     highest occupied, lowest unoccupied level (ev):     4.7935    7.7665

     Writing all to output data dir ../../tmp/cspbf3.save/

     init_run     :      2.16s CPU      2.35s WALL (       1 calls)
     electrons    :    846.09s CPU    859.52s WALL (       1 calls)

     Called by init_run:
     wfcinit      :      0.00s CPU      0.00s WALL (       1 calls)
     potinit      :      0.92s CPU      0.98s WALL (       1 calls)
     hinit0       :      0.58s CPU      0.60s WALL (       1 calls)

     Called by electrons:
     c_bands      :    846.09s CPU    859.51s WALL (       1 calls)
     v_of_rho     :      0.10s CPU      0.11s WALL (       1 calls)
     newd         :      0.51s CPU      0.61s WALL (       1 calls)
     PAW_pot      :      0.80s CPU      0.82s WALL (       1 calls)

     Called by c_bands:
     init_us_2    :      0.13s CPU      0.13s WALL (      84 calls)
     init_us_2:cp :      0.13s CPU      0.13s WALL (      84 calls)
     cegterg      :    832.81s CPU    845.95s WALL (     406 calls)

     Called by *egterg:
     cdiaghg      :     26.62s CPU     26.70s WALL (    7418 calls)
     h_psi        :    406.99s CPU    419.22s WALL (    7824 calls)
     s_psi        :     51.18s CPU     51.32s WALL (    7824 calls)
     g_psi        :      1.87s CPU      1.87s WALL (    7334 calls)

     Called by h_psi:
     h_psi:calbec :     77.57s CPU     77.95s WALL (    7824 calls)
     vloc_psi     :    277.54s CPU    289.24s WALL (    7824 calls)
     add_vuspsi   :     51.19s CPU     51.33s WALL (    7824 calls)

     General routines
     calbec       :     77.55s CPU     77.94s WALL (    7824 calls)
     fft          :      0.05s CPU      0.06s WALL (      13 calls)
     ffts         :      0.00s CPU      0.00s WALL (       1 calls)
     fftw         :    254.22s CPU    264.85s WALL (  367534 calls)
     interpolate  :      0.01s CPU      0.01s WALL (       1 calls)
     davcio       :      0.04s CPU      0.09s WALL (     168 calls)

     Parallel routines

     PWSCF        :  14m 9.23s CPU  14m24.87s WALL


   This run was terminated on:   3: 9:33  18Jun2026            

=------------------------------------------------------------------------------=
   JOB DONE.
=------------------------------------------------------------------------------=
